LAMMPS (10 Aug 2015)
# Remember that LAMMPS 2005 uses only single words as commands, e.g. bond_style
# This script is for lmp_linux executable (2011 64 bit)

# (1) Initialization
units                   real
dimension               3
boundary                p p p
newton                  on
atom_style              full
#processors             2 2 2

kspace_style   		    pppm 1.0e-6
pair_style              lj/cut/coul/long 12.0 12.0

bond_style              harmonic
angle_style             harmonic
dihedral_style          harmonic
improper_style          cvff

# (2) Atom definition: read the .lammps05 file as data.class2
read_data               170KMgO1MLH2O.data
  orthogonal box = (0.761991 -0.707433 -48.5132) to (21.817 20.3476 72.5418)
  1 by 1 by 1 MPI processor grid
  reading atoms ...
  1150 atoms
  scanning bonds ...
  2 = max bonds/atom
  scanning angles ...
  1 = max angles/atom
  reading bonds ...
  100 bonds
  reading angles ...
  50 angles
  2 = max # of 1-2 neighbors
  1 = max # of 1-3 neighbors
  1 = max # of 1-4 neighbors
  2 = max # of special neighbors
#change_box      	    all triclinic

# (3) Settings
neighbor                2.0 bin
neigh_modify 		    every 2 delay 10 check yes page 1000000 one 40000
special_bonds           lj/coul 0.0 0.0 1.0
  2 = max # of 1-2 neighbors
  1 = max # of 1-3 neighbors
  2 = max # of special neighbors

# (4) Minimization: con.grad. (cg)/steep.desc. (sd, somewt. more stable)
thermo_style            custom step temp pe ke etotal enthalpy evdwl ecoul epair ebond eangle edihed eimp emol elong etail lx ly lz cella cellb cellc cellalpha cellbeta cellgamma vol density pxx pyy pzz pxy pxz pyz press
thermo                  50
dump                    0 all atom 5 whole.min
minimize                0.00000001 0.00000001 50000 50000
WARNING: Resetting reneighboring criteria during minimization (../min.cpp:168)
PPPM initialization ...
  G vector (1/distance) = 0.283574
  grid = 30 30 108
  stencil order = 5
  estimated absolute RMS force accuracy = 0.000375391
  estimated relative force accuracy = 1.13048e-06
  using double precision FFTs
  3d grid and FFT values/proc = 157435 97200
Neighbor list info ...
  1 neighbor list requests
  update every 1 steps, delay 0 steps, check yes
  master list distance cutoff = 14
  ghost atom cutoff = 14
Memory usage per processor = 22.7688 Mbytes
Step Temp PotEng KinEng TotEng Enthalpy E_vdwl E_coul E_pair E_bond E_angle E_dihed E_impro E_mol E_long E_tail Lx Ly Lz Cella Cellb Cellc CellAlpha CellBeta CellGamma Volume Density Pxx Pyy Pzz Pxy Pxz Pyz Press 
       0            0   -148746.07            0   -148746.07   -151911.47    5699.9247   -92140.706   -148806.36    32.337284    27.949373            0            0    60.286656   -62365.579            0       21.055       21.055      121.055       21.055       21.055      121.055           90           90           90    53665.258   0.65143209   -5389.2983   -5294.3836   -1449.6677    158.88368   -149.88931   -140.20645   -4044.4499 
      50            0   -149253.76            0   -149253.76   -152795.06    5575.9588   -92490.093   -149285.89    14.110207    18.016934            0            0    32.127141   -62371.756            0       21.055       21.055      121.055       21.055       21.055      121.055           90           90           90    53665.258   0.65143209   -6818.7317   -6832.6784    77.188246   -10.879017   -63.221233    35.756809   -4524.7406 
      56            0   -149253.79            0   -149253.79    -152811.9    5572.4549   -92486.611   -149285.92    14.124849    18.011454            0            0    32.136303   -62371.768            0       21.055       21.055      121.055       21.055       21.055      121.055           90           90           90    53665.258   0.65143209    -6827.744   -6841.5741    30.637541    -9.499917   -56.128537    34.648476   -4546.2268 
Loop time of 3.72319 on 1 procs for 56 steps with 1150 atoms

Minimization stats:
  Stopping criterion = energy tolerance
  Energy initial, next-to-last, final = 
        -148746.074192     -149253.786534     -149253.787879
  Force two-norm initial, final = 568.753 1.68339
  Force max component initial, final = 55.2489 0.220724
  Final line search alpha, max atom move = 0.153668 0.0339182
  Iterations, force evaluations = 56 112

Pair  time (%) = 1.49288 (40.0968)
Bond  time (%) = 0.00111055 (0.029828)
Kspce time (%) = 2.21219 (59.4167)
Neigh time (%) = 0 (0)
Comm  time (%) = 0.00286674 (0.0769971)
Outpt time (%) = 0.0101264 (0.271981)
Other time (%) = 0.0040102 (0.107709)

Nlocal:    1150 ave 1150 max 1150 min
Histogram: 1 0 0 0 0 0 0 0 0 0
Nghost:    5419 ave 5419 max 5419 min
Histogram: 1 0 0 0 0 0 0 0 0 0
Neighs:    558980 ave 558980 max 558980 min
Histogram: 1 0 0 0 0 0 0 0 0 0

Total # of neighbors = 558980
Ave neighs/atom = 486.07
Ave special neighs/atom = 0.26087
Neighbor list builds = 0
Dangerous builds = 0
undump                  0
reset_timestep          0

# (5) NPT Dynamics 1 (pressure = 1 atm in x, y, and z directions of an orthogonal box)
timestep                1.0
velocity                all create 170 4928459 rot yes dist gaussian
fix                     7 all nvt temp 170.0 170.0 100.0 #aniso 1.0 1.0 500

# Full stress tensor incl. xy, yz, xz requires declaration as a triclinic box with tilt factors
thermo_style            custom step temp pe ke etotal enthalpy evdwl ecoul epair ebond eangle edihed eimp emol elong etail lx ly lz cella cellb cellc cellalpha cellbeta cellgamma vol density pxx pyy pzz pxy pxz pyz press
thermo                  100
dump			        1 all atom 2000 trajectory_arc.lammpstrj

run                     200000
PPPM initialization ...
  G vector (1/distance) = 0.283574
  grid = 30 30 108
  stencil order = 5
  estimated absolute RMS force accuracy = 0.000375391
  estimated relative force accuracy = 1.13048e-06
  using double precision FFTs
  3d grid and FFT values/proc = 157435 97200
Neighbor list info ...
  1 neighbor list requests
  update every 2 steps, delay 10 steps, check yes
  master list distance cutoff = 14
  ghost atom cutoff = 14
Memory usage per processor = 21.6438 Mbytes
Step Temp PotEng KinEng TotEng Enthalpy E_vdwl E_coul E_pair E_bond E_angle E_dihed E_impro E_mol E_long E_tail Lx Ly Lz Cella Cellb Cellc CellAlpha CellBeta CellGamma Volume Density Pxx Pyy Pzz Pxy Pxz Pyz Press 
       0          170   -149253.79    582.24163   -148671.55    -151841.5    5572.4549   -92486.611   -149285.92    14.124849    18.011454            0            0    32.136303   -62371.768            0       21.055       21.055      121.055       21.055       21.055      121.055           90           90           90    53665.258   0.65143209   -6330.3251   -6343.5735    523.08516    -19.42388   -52.025459    56.773762   -4050.2711 
     100    88.377305    -148919.7    302.68792   -148617.01   -151461.05    5688.7617   -92284.562   -148965.55    25.784901     20.06664            0            0    45.851541   -62369.746            0       21.055       21.055      121.055       21.055       21.055      121.055           90           90           90    53665.258   0.65143209   -5351.5475   -5314.0707   -235.91361    23.803155   -41.137137    117.12952   -3633.8439 
     200    100.87483   -148873.49    345.49132      -148528   -151728.89    5611.2251   -92161.386   -148918.55     22.48574    22.572697            0            0    45.058437    -62368.39            0       21.055       21.055      121.055       21.055       21.055      121.055           90           90           90    53665.258   0.65143209   -5356.2316   -5269.0471    -1644.093    38.109244    126.74509    127.61351   -4089.7906 
     300    121.92697   -148838.27    417.59388   -148420.67   -150960.69    5738.4919   -92258.527   -148888.79     25.56022    24.959922            0            0    50.520142   -62368.753            0       21.055       21.055      121.055       21.055       21.055      121.055           90           90           90    53665.258   0.65143209   -4794.5412   -4894.8186   -46.811813    -84.34743    81.023238    104.85278   -3245.3905 
     400    134.19377   -148764.76    459.60705   -148305.16   -150039.33    5911.1212   -92361.657      -148818    30.431871    22.808461            0            0    53.240332   -62367.468            0       21.055       21.055      121.055       21.055       21.055      121.055           90           90           90    53665.258   0.65143209   -4270.0036   -4209.9183    1832.6222   -48.026633    69.082123    88.327069   -2215.7666 
     500    153.75635   -148718.35    526.60791   -148191.75   -150248.72    5832.5436   -92231.666   -148765.52    23.182271     23.98383            0            0    47.166101   -62366.397            0       21.055       21.055      121.055       21.055       21.055      121.055           90           90           90    53665.258   0.65143209   -4052.9052   -4215.5709    383.85715    70.894816    70.301092   -78.414864   -2628.2063 
     600    169.24087   -148671.53    579.64163   -148091.88   -151147.07    5618.2278   -91981.098   -148728.97    30.065499    27.381059            0            0    57.446558   -62366.101            0       21.055       21.055      121.055       21.055       21.055      121.055           90           90           90    53665.258   0.65143209   -4553.3764   -4696.0427   -2461.4566    69.757795   -8.4066721   -132.07959   -3903.6252 
     700    175.82814   -148623.57    602.20272   -148021.37   -150389.09    5769.4569   -92086.388   -148682.88    31.677412    27.635595            0            0    59.313007    -62365.95            0       21.055       21.055      121.055       21.055       21.055      121.055           90           90           90    53665.258   0.65143209   -3992.6248   -4210.7543   -872.39834   -29.693908   -148.39082   -105.76782   -3025.2591 
     800    187.19017   -148651.71    641.11713   -148010.59   -149502.99     5960.069    -92306.96   -148712.88     36.08257    25.089299            0            0    61.171869   -62365.991            0       21.055       21.055      121.055       21.055       21.055      121.055           90           90           90    53665.258   0.65143209   -3717.9916   -3910.7113    1908.1532   -59.328298   -136.31837   -226.38246   -1906.8499 
     900    172.39065   -148657.64     590.4295   -148067.21   -149823.33    5907.7563   -92260.131   -148718.44    34.368456    26.434803            0            0    60.803258   -62366.068            0       21.055       21.055      121.055       21.055       21.055      121.055           90           90           90    53665.258   0.65143209   -3991.7318   -3886.0755    1146.3962    38.906476    72.150041   -97.954124   -2243.8037 
    1000     165.3336   -148687.59    566.25942   -148121.33   -151028.61    5674.6613   -92053.213   -148743.64    33.493172    22.558447            0            0    56.051619   -62365.088            0       21.055       21.055      121.055       21.055       21.055      121.055           90           90           90    53665.258   0.65143209   -4651.5161   -4643.4146   -1849.0321    148.73797   -22.123933   -68.386339   -3714.6543 
    1100    165.63674   -148696.97    567.29767   -148129.68   -150732.79    5738.2816   -92120.868   -148748.97    31.206218    20.789985            0            0    51.996203   -62366.383            0       21.055       21.055      121.055       21.055       21.055      121.055           90           90           90    53665.258   0.65143209   -4608.0771   -4637.7231   -732.25595   -20.516058    33.775717    181.74868   -3326.0187 
    1200    169.09547   -148673.79    579.14366   -148094.65   -149874.23    5918.8945   -92283.644   -148731.56    36.678797    21.088816            0            0    57.767614    -62366.81            0       21.055       21.055      121.055       21.055       21.055      121.055           90           90           90    53665.258   0.65143209   -4045.7244   -4216.7321    1441.1025   -16.578466    83.031435    333.28296   -2273.7847 
    1300     173.4827   -148647.36    594.16971   -148053.19   -149954.12    5899.7343   -92243.736   -148710.03    39.811233     22.85738            0            0    62.668612    -62366.03            0       21.055       21.055      121.055       21.055       21.055      121.055           90           90           90    53665.258   0.65143209   -4152.5296   -4019.4054     885.4617   -53.934253    89.577819    109.52126   -2428.8244 
    1400    175.18234   -148643.59     599.9909    -148043.6   -150623.07    5763.3546   -92105.586   -148708.93    43.489317    21.855851            0            0    65.345168   -62366.704            0       21.055       21.055      121.055       21.055       21.055      121.055           90           90           90    53665.258   0.65143209   -4433.9084   -4542.3433   -911.14776   0.82031923    44.390987    103.18085   -3295.7998 
    1500    168.12856   -148639.61    575.83205   -148063.78   -150837.33     5722.341   -92060.043   -148703.13    37.794141    25.724448            0            0    63.518588   -62365.427            0       21.055       21.055      121.055       21.055       21.055      121.055           90           90           90    53665.258   0.65143209   -4534.3134    -4539.926    -1557.103    85.648976    52.983136   -27.929886   -3543.7808 
    1600    168.18843   -148670.29    576.03709   -148094.25   -150101.34    5879.8188   -92245.242   -148730.66    37.398994    22.970403            0            0    60.369397   -62365.234            0       21.055       21.055      121.055       21.055       21.055      121.055           90           90           90    53665.258   0.65143209   -3914.2875   -4385.2338    606.10998   -45.213076   -71.781151   -270.11303   -2564.4705 
    1700    165.86585   -148681.96    568.08238   -148113.87   -149767.26    5952.2282   -92326.896   -148739.03    33.438319    23.635547            0            0    57.073866   -62364.362            0       21.055       21.055      121.055       21.055       21.055      121.055           90           90           90    53665.258   0.65143209    -3885.623   -4228.0639    1776.0494   -90.708938   -46.288048    -127.0389   -2112.5459 
    1800     167.8228    -148679.7    574.78482   -148104.92   -150478.08    5792.9417    -92166.94   -148739.74    38.717051    21.323834            0            0    60.040885   -62365.746            0       21.055       21.055      121.055       21.055       21.055      121.055           90           90           90    53665.258   0.65143209   -4196.3151   -4426.6977   -473.58364   -40.303469    3.4558351   -128.23113   -3032.1988 
    1900    171.45827   -148663.16    587.23613   -148075.92   -150929.88    5681.2967   -92043.503   -148728.51    34.794086    30.554118            0            0    65.348204     -62366.3            0       21.055       21.055      121.055       21.055       21.055      121.055           90           90           90    53665.258   0.65143209   -4494.4088   -4588.4946   -1856.6337    147.04509   -130.74843    74.779861   -3646.5124 
    2000    172.46426   -148634.84    590.68159   -148044.16   -150093.12     5838.999   -92169.835   -148696.54    31.600237    30.098269            0            0    61.698507   -62365.703            0       21.055       21.055      121.055       21.055       21.055      121.055           90           90           90    53665.258   0.65143209   -4001.7746    -3869.047    16.908161    40.145787    -161.3166   -133.83322   -2617.9711 
    2100    177.89179   -148655.96    609.27063   -148046.69   -149693.35    5919.4271   -92270.267   -148714.77    29.566077    29.239219            0            0    58.805296   -62363.929            0       21.055       21.055      121.055       21.055       21.055      121.055           90           90           90    53665.258   0.65143209   -3764.7251   -3865.0615    1317.9483   -209.79398    33.317796    198.65267   -2103.9461 
    2200    170.37884   -148665.99    583.53914   -148082.45   -150012.94    5858.0387   -92212.698   -148720.05    30.822334    23.242298            0            0    54.064632   -62365.395            0       21.055       21.055      121.055       21.055       21.055      121.055           90           90           90    53665.258   0.65143209   -3972.6783   -4106.4707     679.3377   -67.766632   -40.960898    265.32347   -2466.6037 
    2300    162.31272   -148667.47    555.91307   -148111.56   -150779.38    5706.2335   -92063.485   -148722.02     31.77596     22.77678            0            0    54.552741    -62364.77            0       21.055       21.055      121.055       21.055       21.055      121.055           90           90           90    53665.258   0.65143209   -4367.9293   -4531.6033   -1326.5696    93.506485    184.39922    55.078956   -3408.7007 
    2400    166.89608    -148678.9    571.61084   -148107.29   -150622.27    5742.7024   -92109.026   -148730.93    29.703027      22.3279            0            0    52.030928   -62364.609            0       21.055       21.055      121.055       21.055       21.055      121.055           90           90           90    53665.258   0.65143209   -4038.4965   -4619.7921   -981.93415    79.047725    139.42147   -29.004377   -3213.4076 
    2500    173.92362   -148672.48    595.67982    -148076.8   -149705.06    5917.8535   -92276.481   -148724.91    29.680727      22.7556            0            0    52.436326   -62366.287            0       21.055       21.055      121.055       21.055       21.055      121.055           90           90           90    53665.258   0.65143209   -3821.6661   -3819.6088    1399.9624   -145.56947    150.86668    -139.1193   -2080.4375 
    2600    175.49724   -148658.15    601.06939   -148057.08    -149787.9    5911.1392    -92253.01   -148707.56    31.729571    17.680531            0            0    49.410102   -62365.687            0       21.055       21.055      121.055       21.055       21.055      121.055           90           90           90    53665.258   0.65143209    -3818.669   -4010.6349    1194.8541   -203.83431   -159.04794   -96.735103   -2211.4832 
    2700    175.73021   -148661.79     601.8673   -148059.93   -150743.68    5707.0784    -92055.62   -148714.67    33.098206     19.78005            0            0    52.878256   -62366.129            0       21.055       21.055      121.055       21.055       21.055      121.055           90           90           90    53665.258   0.65143209   -4259.0499   -4391.1215    -1636.972    43.488957   -86.697505   -68.123277   -3429.0478 
    2800    169.26179   -148657.64    579.71331   -148077.93   -150795.82    5700.2572   -92048.581   -148714.42    34.635289    22.148174            0            0    56.783463   -62366.099            0       21.055       21.055      121.055       21.055       21.055      121.055           90           90           90    53665.258   0.65143209   -4480.3863   -4553.8782   -1383.7377    82.100021   -11.263089   -228.66886   -3472.6674 
    2900    168.58188   -148671.16    577.38463   -148093.78   -149724.47    5930.3075   -92290.237    -148726.1    31.959367    22.978008            0            0    54.937375   -62366.169            0       21.055       21.055      121.055       21.055       21.055      121.055           90           90           90    53665.258   0.65143209   -3903.7339   -3838.3213     1491.422   -15.792466   -190.59192   -79.942826   -2083.5444 
    3000    170.99047   -148688.94    585.63393    -148103.3      -149768    5928.4867   -92308.276    -148745.7    34.354267    22.408572            0            0    56.762839   -62365.912            0       21.055       21.055      121.055       21.055       21.055      121.055           90           90           90    53665.258   0.65143209   -3846.8543   -3984.0174    1449.9092   -109.52199   -11.436127    235.25369   -2126.9875 
    3100    169.81017   -148677.74    581.59148   -148096.15   -150672.37    5738.9049   -92108.633   -148735.59    33.216221    24.629254            0            0    57.845474   -62365.859            0       21.055       21.055      121.055       21.055       21.055      121.055           90           90           90    53665.258   0.65143209   -4375.0567   -4513.0864    -986.8051    26.296739    71.534838    199.52036   -3291.6494 
    3200    169.27144   -148652.53    579.74633   -148072.78      -150888    5696.4481    -92042.28   -148711.16    31.075154    27.556653            0            0    58.631807   -62365.329            0       21.055       21.055      121.055       21.055       21.055      121.055           90           90           90    53665.258   0.65143209   -4358.2356   -4721.7774   -1711.0356    136.20893    18.820165    79.046214   -3597.0162 
    3300    172.64798   -148644.18    591.31084   -148052.87   -150007.99    5883.2205   -92225.699    -148707.6    39.233014    24.189642            0            0    63.422656   -62365.125            0       21.055       21.055      121.055       21.055       21.055      121.055           90           90           90    53665.258   0.65143209   -4019.1131   -4367.6268    892.55033   -134.64677    117.01471    84.841558   -2498.0632 
    3400    171.87387   -148647.83    588.65955   -148059.17   -149664.68     5959.007   -92301.842   -148708.67    38.779174    22.059734            0            0    60.838908    -62365.83            0       21.055       21.055      121.055       21.055       21.055      121.055           90           90           90    53665.258   0.65143209   -3953.0399    -3855.236    1654.1717   -146.30826    96.753503    215.16251   -2051.3681 
    3500    167.57821      -148663     573.9471   -148089.06   -150346.01    5830.5374   -92189.693   -148724.04    37.128832    23.910755            0            0    61.039587   -62364.888            0       21.055       21.055      121.055       21.055       21.055      121.055           90           90           90    53665.258   0.65143209   -4205.0452   -4314.2741   -131.84509   -41.300553    26.638437   -258.01233   -2883.7215 
    3600    168.20743   -148680.06    576.10216   -148103.95   -150962.79    5691.2877   -92079.125   -148753.71    38.724631    34.925938            0            0    73.650569    -62365.87            0       21.055       21.055      121.055       21.055       21.055      121.055           90           90           90    53665.258   0.65143209   -4763.3261   -4763.7456   -1431.1742    149.28401    13.765156   -129.55353   -3652.7487 
    3700    162.64351   -148650.15    557.04602    -148093.1   -150451.08    5803.9948    -92156.31   -148717.47    36.216593    31.103057            0            0     67.31965   -62365.154            0       21.055       21.055      121.055       21.055       21.055      121.055           90           90           90    53665.258   0.65143209   -4227.7182   -4486.8513   -323.85068    93.859476   -99.368522   -199.53145   -3012.8067 
    3800    171.25332   -148656.65    586.53418   -148070.11   -149639.29    5959.1602   -92308.837   -148715.14      34.0069    24.487524            0            0    58.494424   -62365.465            0       21.055       21.055      121.055       21.055       21.055      121.055           90           90           90    53665.258   0.65143209    -3905.248   -3814.8409    1705.2511   -51.866603   -272.65923   -92.948504   -2004.9459 
    3900    171.76991   -148650.62    588.30348   -148062.32   -150065.74    5858.0546   -92203.048   -148711.26    31.179263    29.453097            0            0     60.63236   -62366.263            0       21.055       21.055      121.055       21.055       21.055      121.055           90           90           90    53665.258   0.65143209   -4064.6353   -3959.1286    344.43305   -129.65075   -67.476304   -90.448453   -2559.7769 
    4000    166.82363   -148651.52    571.36271   -148080.15   -150838.68    5690.7573   -92034.568    -148708.5    31.635492    25.345714            0            0    56.981206   -62364.688            0       21.055       21.055      121.055       21.055       21.055      121.055           90           90           90    53665.258   0.65143209   -4512.6677    -4362.782   -1698.3133    16.381135    23.922767    19.290271   -3524.5877 
    4100    161.34724   -148661.83    552.60635   -148109.23    -150345.4    5792.3539   -92144.222   -148717.62    29.093189    26.696876            0            0    55.790065   -62365.755            0       21.055       21.055      121.055       21.055       21.055      121.055           90           90           90    53665.258   0.65143209   -4294.2036   -3875.1757   -402.14599    69.745208   -84.375367    262.05673   -2857.1751 
    4200    166.07805    -148682.3    568.80913   -148113.49    -149725.9    5913.7927   -92280.154   -148731.26    25.184016    23.767313            0            0     48.95133   -62364.894            0       21.055       21.055      121.055       21.055       21.055      121.055           90           90           90    53665.258   0.65143209   -3815.7967   -3759.1981    1394.4463   -6.7050073    105.18999    318.39425   -2060.1828 
    4300    173.74725   -148672.86    595.07577   -148077.78   -149951.09    5843.9208     -92203.1   -148723.78    26.328375    24.597172            0            0    50.925547   -62364.606            0       21.055       21.055      121.055       21.055       21.055      121.055           90           90           90    53665.258   0.65143209   -3868.8596   -3980.3313    668.59335   -60.043684    274.61421   -56.050905   -2393.5325 
    4400    174.31817   -148653.94    597.03115   -148056.91   -150410.69    5754.9241   -92091.546   -148701.98    28.071611    19.975212            0            0    48.046823   -62365.362            0       21.055       21.055      121.055       21.055       21.055      121.055           90           90           90    53665.258   0.65143209   -3963.6532   -4099.1801   -959.47802   -7.0968135   -6.9725525   -24.823644   -3007.4371 
    4500    171.16012   -148650.44    586.21498   -148064.22   -150410.65    5752.1217   -92085.449   -148698.82    25.090647     23.28882            0            0    48.379466    -62365.49            0       21.055       21.055      121.055       21.055       21.055      121.055           90           90           90    53665.258   0.65143209   -4082.5249   -3957.5058   -954.08522    74.648485   -9.9980674     58.14317   -2998.0387 
    4600    168.90113   -148660.93    578.47804   -148082.46   -149915.57    5867.9424   -92215.434   -148713.31    30.196926    22.184802            0            0    52.381728   -62365.823            0       21.055       21.055      121.055       21.055       21.055      121.055           90           90           90    53665.258   0.65143209   -3905.5789   -3861.4297    740.46702    1.3709668    167.40516   -196.28119   -2342.1805 
    4700    164.49908   -148667.53    563.40124   -148104.13   -149621.76     5937.653   -92288.326   -148716.87    25.717293    23.619414            0            0    49.336707   -62366.195            0       21.055       21.055      121.055       21.055       21.055      121.055           90           90           90    53665.258   0.65143209   -3637.5681   -3528.1141    1348.4349   -159.31681   -142.31098   -269.11303   -1939.0824 
    4800    168.75103   -148683.23    577.96398   -148105.27   -150402.43    5784.8275    -92160.52   -148740.71    31.118548    26.361637            0            0    57.480184   -62365.021            0       21.055       21.055      121.055       21.055       21.055      121.055           90           90           90    53665.258   0.65143209   -4357.7898   -4118.0712   -329.42657   -96.480839   -179.00625   -103.62789   -2935.0959 
    4900    173.67885   -148661.88    594.84151   -148067.04   -150619.15    5732.4884   -92089.811   -148722.53      28.2217    32.432456            0            0    60.654156   -62365.208            0       21.055       21.055      121.055       21.055       21.055      121.055           90           90           90    53665.258   0.65143209   -4400.5741    -4426.071   -955.92885    169.76264    27.641035    82.900546    -3260.858 
    5000    178.67708   -148662.21     611.9602   -148050.25   -150341.83    5802.8678   -92162.404   -148725.09    38.421292    24.461907            0            0    62.883199   -62365.554            0       21.055       21.055      121.055       21.055       21.055      121.055           90           90           90    53665.258   0.65143209   -4182.1654   -4460.2177   -141.53702    74.010644   -56.222235    143.07512   -2927.9734 
    5100    174.18503   -148665.96    596.57516   -148069.39   -149995.61    5882.9045   -92237.978   -148721.25    34.336117    20.951947            0            0    55.288064   -62366.175            0       21.055       21.055      121.055       21.055       21.055      121.055           90           90           90    53665.258   0.65143209   -4153.2361   -4123.1988    892.98273   -164.89616   0.78957281    161.12132   -2461.1507 
    5200    171.56791   -148682.52    587.61165   -148094.91   -150331.32    5833.4743   -92209.957   -148742.34    38.620325    21.199562            0            0    59.819887   -62365.857            0       21.055       21.055      121.055       21.055       21.055      121.055           90           90           90    53665.258   0.65143209   -4556.7456   -4302.9992    287.31159   -78.448029    128.94884    249.07978   -2857.4777 
    5300    163.86964   -148657.46    561.24546   -148096.21   -150852.93    5725.2468   -92089.003   -148729.26    40.903635     30.89645            0            0    71.800085   -62365.502            0       21.055       21.055      121.055       21.055       21.055      121.055           90           90           90    53665.258   0.65143209   -4681.1488    -4578.339   -1307.3323    16.407058    70.715778    211.31247   -3522.2733 
    5400    170.86996   -148663.57     585.2212   -148078.35   -150665.69     5774.761    -92139.06   -148729.79    40.219786    25.991599            0            0    66.211385   -62365.487            0       21.055       21.055      121.055       21.055       21.055      121.055           90           90           90    53665.258   0.65143209   -4543.1902   -4761.1395   -613.22635    100.92897   -68.930169   -9.7647505    -3305.852 
    5500    167.38382   -148625.48    573.28133    -148052.2   -149873.18    5930.4061   -92253.152   -148689.12    42.608052    21.028851            0            0    63.636903   -62366.371            0       21.055       21.055      121.055       21.055       21.055      121.055           90           90           90    53665.258   0.65143209   -3959.0463   -4350.5225    1329.5302   -32.147123    249.53862   -99.858143   -2326.6795 
    5600    175.10428   -148647.12    599.72353    -148047.4   -150104.06    5887.7011   -92228.646   -148707.53    40.906998     19.50298            0            0    60.409978   -62366.586            0       21.055       21.055      121.055       21.055       21.055      121.055           90           90           90    53665.258   0.65143209   -4054.6903   -4404.8313     576.1057   -113.94375   -159.62335   -219.99947   -2627.8053 
    5700    168.63056   -148666.26    577.55135   -148088.71   -150788.71    5746.3045   -92115.363   -148735.32    41.917741     27.14179            0            0    69.059531   -62366.261            0       21.055       21.055      121.055       21.055       21.055      121.055           90           90           90    53665.258   0.65143209    -4644.261   -4719.5503   -985.62463   -98.714622   -104.48954   -108.98462    -3449.812 
    5800     164.2396   -148667.47    562.51252   -148104.96   -150656.59    5761.1297   -92124.222   -148729.28    32.993978    28.814229            0            0    61.808207   -62366.186            0       21.055       21.055      121.055       21.055       21.055      121.055           90           90           90    53665.258   0.65143209   -4293.1146   -4594.8514   -892.74003    180.97612    107.97928   -242.81925   -3260.2353 
    5900    174.24306   -148689.51    596.77391   -148092.74   -149923.41    5906.2573   -92288.345   -148748.21    34.056088    24.646545            0            0    58.702633   -62366.126            0       21.055       21.055      121.055       21.055       21.055      121.055           90           90           90    53665.258   0.65143209    -4085.549    -4151.955      1220.32    146.81137    100.38952   -1.8388918   -2339.0613 
    6000    173.00459   -148663.75    592.53219   -148071.22   -149828.52    5907.5863   -92265.961   -148723.36    34.438832    25.168466            0            0    59.607298   -62364.983            0       21.055       21.055      121.055       21.055       21.055      121.055           90           90           90    53665.258   0.65143209   -4016.7108   -3768.8569    1049.6217   -31.333644    -229.7976    186.95789   -2245.3153 
    6100    173.04575   -148651.45    592.67317   -148058.78   -150467.88    5768.6906   -92116.999      -148714    32.515407    30.029583            0            0    62.544991   -62365.688            0       21.055       21.055      121.055       21.055       21.055      121.055           90           90           90    53665.258   0.65143209   -4373.9764   -4062.4903   -797.88746   -26.365748    124.63705    248.48426    -3078.118 
    6200    176.06925   -148665.75    603.02852   -148062.72   -150559.78     5726.325   -92085.194   -148725.02     27.83589    31.433594            0            0    59.269484   -62366.146            0       21.055       21.055      121.055       21.055       21.055      121.055           90           90           90    53665.258   0.65143209   -4166.4573   -4330.6081   -1074.4602    127.46406    86.806096    85.312498   -3190.5085 
    6300    170.77916   -148684.67    584.91022   -148099.76   -150023.21    5839.3932   -92206.566   -148732.73    23.879218    24.173215            0            0    48.052434   -62365.552            0       21.055       21.055      121.055       21.055       21.055      121.055           90           90           90    53665.258   0.65143209   -3825.7655   -4112.5522    565.53593    2.1945648   -50.351124    58.868816   -2457.5939 
    6400    166.81919    -148680.3    571.34752   -148108.95   -149610.64    5925.0601   -92283.688   -148723.78    22.232522    21.253715            0            0    43.486238   -62365.157            0       21.055       21.055      121.055       21.055       21.055      121.055           90           90           90    53665.258   0.65143209   -3645.8107   -3702.2778    1591.9409   -10.491682   -11.000722    12.595995   -1918.7159 
    6500    169.89817   -148677.04    581.89288   -148095.15   -150241.15    5795.0974    -92157.72   -148728.97    27.786322     24.14117            0            0    51.927492   -62366.347            0       21.055       21.055      121.055       21.055       21.055      121.055           90           90           90    53665.258   0.65143209   -3873.0943   -3943.4647   -409.33151   -148.37302    85.149429   -143.62872   -2741.9635 
    6600    175.33765   -148664.21    600.52281   -148063.69    -150589.3     5709.831   -92060.377   -148717.98    27.599398    26.173328            0            0    53.772726   -62367.436            0       21.055       21.055      121.055       21.055       21.055      121.055           90           90           90    53665.258   0.65143209   -4088.0548   -4116.4426   -1476.4868   -2.3451218   -87.472315   -314.77124   -3226.9948 
    6700    174.84683   -148657.34     598.8418   -148058.49   -149968.27    5857.7281   -92197.518   -148705.31    25.095327    22.878783            0            0     47.97411   -62365.521            0       21.055       21.055      121.055       21.055       21.055      121.055           90           90           90    53665.258   0.65143209   -3968.8691   -3664.0371    312.51922    69.520167    1.6524163   -201.08986    -2440.129 
    6800      173.531   -148666.97    594.33511   -148072.64   -149782.51    5910.2248   -92269.248   -148726.12     30.87146     28.27586            0            0     59.14732   -62367.098            0       21.055       21.055      121.055       21.055       21.055      121.055           90           90           90    53665.258   0.65143209   -3698.8522   -4034.9562    1179.6671    24.905066   -164.02119   -101.33099   -2184.7138 
    6900    170.91708   -148673.25    585.38258   -148087.87   -150243.31    5831.8924   -92201.439   -148735.82    34.473897    28.095006            0            0    62.568903   -62366.273            0       21.055       21.055      121.055       21.055       21.055      121.055           90           90           90    53665.258   0.65143209   -4118.3372   -4189.5868    45.852028   -165.42505   -62.880843   -32.437157    -2754.024 
    7000    163.97804   -148661.75    561.61673   -148100.14   -150701.53      5750.58   -92111.459   -148726.66    34.144171    30.768573            0            0    64.912745   -62365.786            0       21.055       21.055      121.055       21.055       21.055      121.055           90           90           90    53665.258   0.65143209   -4670.7049   -4317.9966   -982.76517   -116.26775    23.823772    48.505921   -3323.8222 
    7100    166.10791    -148650.6    568.91142   -148081.69   -150384.88    5827.0512    -92182.03   -148721.13    41.320245    29.210722            0            0    70.530967    -62366.15            0       21.055       21.055      121.055       21.055       21.055      121.055           90           90           90    53665.258   0.65143209   -4454.2118   -4220.8038   -153.37944   -29.250774    91.319149    213.75093   -2942.7984 
    7200    173.65349   -148642.57    594.75465   -148047.81   -149938.75    5913.8232   -92263.027   -148713.79    37.926466    33.297278            0            0    71.223744   -62364.586            0       21.055       21.055      121.055       21.055       21.055      121.055           90           90           90    53665.258   0.65143209   -4093.2876   -4152.9808    998.06027   -14.537765   -13.090075    274.91892   -2416.0694 
    7300    172.64592   -148649.63    591.30378   -148058.33   -150251.26     5849.505   -92200.971   -148716.38    39.454845    27.294663            0            0    66.749508   -62364.916            0       21.055       21.055      121.055       21.055       21.055      121.055           90           90           90    53665.258   0.65143209   -4170.8964   -4346.3894    111.50537   -3.3888838    76.722965   -16.724706   -2801.9268 
    7400    168.87821   -148663.16    578.39954   -148084.76    -150724.7    5756.9278     -92116.9   -148725.38    39.863097     22.35803            0            0    62.221128   -62365.412            0       21.055       21.055      121.055       21.055       21.055      121.055           90           90           90    53665.258   0.65143209    -4354.847   -4679.4578   -1084.8714   -78.180306    104.00206    50.525553   -3373.0587 
    7500    170.54422   -148677.36    584.10555   -148093.25    -150594.2    5779.9544   -92157.923   -148743.52    40.781562    25.379491            0            0    66.161052   -62365.552            0       21.055       21.055      121.055       21.055       21.055      121.055           90           90           90    53665.258   0.65143209   -4283.4525   -4739.4142   -563.54908    90.180678    4.3764144   -81.557541   -3195.4719 
    7600    169.59284   -148670.53    580.84712   -148089.68   -150069.31    5878.8906   -92253.834   -148740.24    36.716676    32.988916            0            0    69.705592   -62365.293            0       21.055       21.055      121.055       21.055       21.055      121.055           90           90           90    53665.258   0.65143209    -4080.273   -4314.3433    806.49408    21.200375    123.73793   -203.99607   -2529.3741 
    7700     174.0736   -148664.44    596.19352   -148068.25   -150126.14    5848.5721   -92212.665   -148728.13    34.752778    28.935787            0            0    63.688565    -62364.04            0       21.055       21.055      121.055       21.055       21.055      121.055           90           90           90    53665.258   0.65143209   -4220.9368   -4142.3863     475.1925     48.79908   -68.209823    -157.5719   -2629.3768 
    7800    181.12904   -148650.51    620.35804   -148030.15   -150476.99    5759.3621   -92097.137   -148702.57    30.973826    21.091094            0            0     52.06492   -62364.799            0       21.055       21.055      121.055       21.055       21.055      121.055           90           90           90    53665.258   0.65143209   -4270.4866   -4238.7387   -869.77988   -125.20927   -233.24984   -132.68071   -3126.3351 
    7900    176.77279   -148647.89    605.43811   -148042.45   -150364.27    5778.5008   -92113.262   -148699.72    31.245394     20.58392            0            0    51.829314   -62364.958            0       21.055       21.055      121.055       21.055       21.055      121.055           90           90           90    53665.258   0.65143209   -3905.7259   -4294.8751    -699.2162   -47.672492    71.026297   -11.789375   -2966.6057 
    8000    177.17017   -148672.23    606.79912   -148065.43   -149997.54    5858.8033   -92221.951   -148728.27    30.160293    25.875605            0            0    56.035898   -62365.121            0       21.055       21.055      121.055       21.055       21.055      121.055           90           90           90    53665.258   0.65143209   -3906.2558     -3929.56    429.84166    95.568811   -17.301022    140.50841   -2468.6581 
    8100    169.68066   -148665.09    581.14789   -148083.94   -149812.05    5902.8585   -92258.426   -148721.56    27.988783    28.481008            0            0    56.469791   -62365.989            0       21.055       21.055      121.055       21.055       21.055      121.055           90           90           90    53665.258   0.65143209   -3673.0422   -3944.1561    993.14941   -95.926854   -145.61285    162.40204   -2208.0163 
    8200    168.75243   -148668.49    577.96877   -148090.52   -150133.16    5836.7934   -92198.444   -148726.96    31.543538    26.926534            0            0    58.470072   -62365.304            0       21.055       21.055      121.055       21.055       21.055      121.055           90           90           90    53665.258   0.65143209   -3896.7445   -4021.8534    88.906124   -77.849318    250.76605    165.87745   -2609.8973 
    8300    174.41975   -148688.01    597.37904   -148090.63   -150616.76    5733.1693   -92113.729   -148745.82    31.022219    26.793221            0            0    57.815439   -62365.264            0       21.055       21.055      121.055       21.055       21.055      121.055           90           90           90    53665.258   0.65143209   -4344.0184   -4391.5451   -947.37695    78.547817    70.935091     96.45362   -3227.6468 
    8400    172.83037    -148653.1    591.93549   -148061.16   -150221.69    5817.4528   -92157.016    -148705.3     29.43746    22.760646            0            0    52.198106   -62365.736            0       21.055       21.055      121.055       21.055       21.055      121.055           90           90           90    53665.258   0.65143209   -4140.6095   -4084.8305   -56.090694      96.1423    18.965329    182.34405   -2760.5103 
    8500    171.57443      -148633    587.63398   -148045.36   -149829.06    5904.5694   -92234.126   -148694.97    32.294163    29.677283            0            0    61.971446   -62365.411            0       21.055       21.055      121.055       21.055       21.055      121.055           90           90           90    53665.258   0.65143209   -3868.3818   -3891.7467    923.01894    49.175769   -29.791528   -215.73147   -2279.0365 
    8600    170.61189   -148651.17    584.33731   -148066.84   -150144.11    5847.4809   -92190.676   -148708.43    30.995692    26.255337            0            0    57.251029   -62365.231            0       21.055       21.055      121.055       21.055       21.055      121.055           90           90           90    53665.258   0.65143209   -4121.3286   -4151.8524    310.76406   -65.726855    146.90974   -248.71346    -2654.139 
    8700    162.96532   -148645.84    558.14819   -148087.69    -150603.3    5761.0267   -92107.545   -148712.56    37.797702    28.916952            0            0    66.714653   -62366.039            0       21.055       21.055      121.055       21.055       21.055      121.055           90           90           90    53665.258   0.65143209   -4387.2919   -4340.9468    -914.3668    20.823062   -233.03844   -164.85676   -3214.2018 
    8800    170.92372   -148673.75    585.40531   -148088.35   -150452.06    5791.3601    -92161.94   -148735.81    34.724931    27.331091            0            0    62.056021   -62365.231            0       21.055       21.055      121.055       21.055       21.055      121.055           90           90           90    53665.258   0.65143209   -4379.9263   -4359.1391   -321.33008    45.440856  -0.98056941   -194.21926   -3020.1318 
    8900    169.14615   -148661.49    579.31724   -148082.18   -150037.76    5885.6776    -92240.14   -148720.37     34.85406    24.019852            0            0    58.873911   -62365.904            0       21.055       21.055      121.055       21.055       21.055      121.055           90           90           90    53665.258   0.65143209   -4060.0432   -4303.3377    867.39396   -91.526842   -6.9778666    31.459306   -2498.6623 
    9000    171.33055   -148654.35    586.79871   -148067.55   -149999.02    5884.4262   -92238.522   -148720.05    35.075151      30.6253            0            0    65.700451   -62365.951            0       21.055       21.055      121.055       21.055       21.055      121.055           90           90           90    53665.258   0.65143209   -3808.2882   -4149.3796    554.11766   -109.27651   -37.168313    144.15009     -2467.85 
    9100    177.20588   -148648.77     606.9214   -148041.85   -150424.16    5792.0099   -92135.378    -148708.3    35.623388    23.903328            0            0    59.526716   -62364.927            0       21.055       21.055      121.055       21.055       21.055      121.055           90           90           90    53665.258   0.65143209   -4146.3055    -4490.128   -495.25573   -69.158877    3.4936068    187.59323   -3043.8964 
    9200     172.6257   -148629.28    591.23453   -148038.05   -150391.18    5791.0438   -92112.024   -148687.22     34.06979    23.862461            0            0    57.932251   -62366.235            0       21.055       21.055      121.055       21.055       21.055      121.055           90           90           90    53665.258   0.65143209   -4201.8036   -4244.3504   -573.68434 -0.0025743744    155.43868    218.77803   -3006.6128 
    9300    167.07596   -148648.09    572.22694   -148075.87   -150054.77    5864.9659   -92207.806   -148708.75     33.62579    27.027003            0            0    60.652793   -62365.907            0       21.055       21.055      121.055       21.055       21.055      121.055           90           90           90    53665.258   0.65143209   -4094.3608   -3944.5268    453.50369   -7.7600427   -17.016874    237.25174   -2528.4613 
    9400    170.51939   -148674.98     584.0205   -148090.96    -150009.8    5870.3715   -92242.938    -148736.9    30.421253    31.498257            0            0     61.91951   -62364.337            0       21.055       21.055      121.055       21.055       21.055      121.055           90           90           90    53665.258   0.65143209    -4038.733   -3932.5743    616.18218    10.512685    52.124178   -28.991679   -2451.7084 
    9500    166.82538   -148662.04    571.36873   -148090.67   -150132.28    5841.5482   -92201.642   -148724.25    31.141429    31.068335            0            0    62.209764   -62364.153            0       21.055       21.055      121.055       21.055       21.055      121.055           90           90           90    53665.258   0.65143209   -4013.8634   -4013.7845    201.91376    -48.87222    79.408166   -144.73677    -2608.578 
    9600    170.39901   -148662.78    583.60822   -148079.17   -150499.92    5759.6294   -92112.484   -148717.99    28.440174    26.767267            0            0    55.207441   -62365.135            0       21.055       21.055      121.055       21.055       21.055      121.055           90           90           90    53665.258   0.65143209   -4127.7143    -4352.612   -798.69019   -49.492038   -59.913072   -196.05499   -3093.0055 
    9700    177.56665    -148658.9    608.15702   -148050.74   -150214.57    5814.4235   -92165.794   -148717.37    29.355439    29.113175            0            0    58.468614   -62365.995            0       21.055       21.055      121.055       21.055       21.055      121.055           90           90           90    53665.258   0.65143209   -3966.0039   -4064.9707   -263.23517    151.26505   -146.79802   -93.038142   -2764.7366 
    9800    171.72341   -148634.32    588.14423   -148046.18   -149878.89    5894.6781   -92228.281   -148699.14    37.861218    26.955338            0            0    64.816556   -62365.534            0       21.055       21.055      121.055       21.055       21.055      121.055           90           90           90    53665.258   0.65143209   -3747.4551   -3924.4959    646.95312    66.878361    34.378206   -210.18037    -2341.666 
    9900    170.25504   -148668.42    583.11514    -148085.3   -150227.33    5814.4881   -92176.316   -148727.79    27.545195    31.830246            0            0    59.375441   -62365.966            0       21.055       21.055      121.055       21.055       21.055      121.055           90           90           90    53665.258   0.65143209   -4080.5325   -3941.1893   -188.91957      -212.48   -67.861779    13.390915   -2736.8805 
   10000    174.82334   -148694.55    598.76132   -148095.79   -150530.22       5755.6   -92144.109   -148754.17    30.765697    28.859355            0            0    59.625053   -62365.665            0       21.055       21.055      121.055       21.055       21.055      121.055           90           90           90    53665.258   0.65143209   -4080.2294   -4388.1013   -863.13643    -129.5272   -45.887708    110.98108    -3110.489 
   10100    170.05429   -148668.97    582.42756   -148086.55   -150311.71    5806.6626   -92164.854   -148724.21    30.031337    25.205594            0            0    55.236931    -62366.02            0       21.055       21.055      121.055       21.055       21.055      121.055           90           90           90    53665.258   0.65143209   -4168.1873   -4220.1456   -140.99432    112.21186    176.16558    247.69181   -2843.1091 
   10200    170.62455   -148653.03    584.38068   -148068.65   -149971.05    5880.5586   -92227.274   -148711.06    34.825598    23.210246            0            0    58.035844   -62364.348            0       21.055       21.055      121.055       21.055       21.055      121.055           90           90           90    53665.258   0.65143209   -3906.3249   -3996.0114    610.20282    53.385349    137.16154    257.90899   -2430.7112 
   10300    172.97189   -148649.62    592.42022    -148057.2   -150066.57    5857.1554   -92201.454   -148709.56    33.425811    26.515237            0            0    59.941048   -62365.267            0       21.055       21.055      121.055       21.055       21.055      121.055           90           90           90    53665.258   0.65143209   -3742.5289   -4053.0146      93.3939   -97.254982   -59.833784    -110.4504   -2567.3832 
   10400    164.00516   -148632.65     561.7096   -148070.94   -150309.16    5822.4195   -92149.839   -148693.21    34.023331    26.531443            0            0    60.554774   -62365.788            0       21.055       21.055      121.055       21.055       21.055      121.055           90           90           90    53665.258   0.65143209   -4083.9641   -4214.3252   -281.05441   -174.02252   -38.381071    98.560609   -2859.7812 
   10500    167.33277   -148677.55    573.10649   -148104.44   -150458.49    5801.4357   -92175.216   -148739.45    35.091068    26.812363            0            0    61.903432   -62365.669            0       21.055       21.055      121.055       21.055       21.055      121.055           90           90           90    53665.258   0.65143209   -4466.5236   -4321.8334   -235.00646   -97.603431   -33.440137   -147.80897   -3007.7878 
   10600    167.92992   -148681.34    575.15171   -148106.19   -150249.78      5853.31   -92230.051   -148743.23    40.623309    21.266573            0            0    61.889882   -62366.486            0       21.055       21.055      121.055       21.055       21.055      121.055           90           90           90    53665.258   0.65143209   -4443.4411   -4217.9359    444.74372    76.725084   -166.88263    -283.0487   -2738.8778 
   10700    168.25521   -148661.46    576.26579    -148085.2   -150147.59    5873.6624   -92227.819   -148720.13    38.927091    19.738689            0            0     58.66578   -62365.973            0       21.055       21.055      121.055       21.055       21.055      121.055           90           90           90    53665.258   0.65143209   -4025.6825   -4557.5056    677.79762    35.610042   -88.329959   -102.26315   -2635.1302 
   10800    168.98086   -148644.36    578.75111   -148065.61   -150437.33    5810.2064   -92148.647   -148703.38    39.092115    19.922689            0            0    59.014805   -62364.938            0       21.055       21.055      121.055       21.055       21.055      121.055           90           90           90    53665.258   0.65143209   -4120.9235   -4425.9816     -544.178     -137.935    -185.2233    33.203982   -3030.3611 
   10900    169.24993    -148645.3    579.67269   -148065.63   -150569.74    5774.7756   -92120.752   -148710.88    39.380896    26.193078            0            0    65.573973   -62364.901            0       21.055       21.055      121.055       21.055       21.055      121.055           90           90           90    53665.258   0.65143209   -4191.9978    -4541.518   -865.01008   -75.529747    -21.06195    182.64833   -3199.5086 
   11000    163.94674   -148634.52     561.5095   -148073.01   -150156.19    5868.5572    -92198.98    -148695.4    36.452069    24.430554            0            0    60.882623    -62364.98            0       21.055       21.055      121.055       21.055       21.055      121.055           90           90           90    53665.258   0.65143209   -4179.5947    -4068.543     263.0708    82.822799    112.82047    45.833257    -2661.689 
   11100    171.74889   -148674.55    588.23149   -148086.31   -150100.15    5883.3541   -92256.773   -148738.71    41.845383    22.322562            0            0    64.167945   -62365.295            0       21.055       21.055      121.055       21.055       21.055      121.055           90           90           90    53665.258   0.65143209   -4309.3827    -4104.153    694.27713    62.440417    135.59117    229.22061   -2573.0862 
   11200    172.04143   -148692.48    589.23341   -148103.25   -150547.15    5785.1882   -92175.778    -148756.9    41.475858    22.940912            0            0     64.41677   -62366.307            0       21.055       21.055      121.055       21.055       21.055      121.055           90           90           90    53665.258   0.65143209   -4497.6098   -4697.8457   -172.29539   -111.38526    16.883606    285.07548   -3122.5836 
   11300    160.88967   -148672.95    551.03918   -148121.91   -150741.98    5754.5454   -92121.341    -148732.5    37.490843     22.05411            0            0    59.544953   -62365.701            0       21.055       21.055      121.055       21.055       21.055      121.055           90           90           90    53665.258   0.65143209   -4561.4707   -4815.8423   -665.72899   -46.774917    121.40206    -121.1093   -3347.6807 
   11400     166.1729    -148689.2    569.13399   -148120.07   -150390.94    5817.1877   -92201.147   -148750.16    34.412497    26.542929            0            0    60.955426   -62366.197            0       21.055       21.055      121.055       21.055       21.055      121.055           90           90           90    53665.258   0.65143209   -4185.3317   -4427.4212   -91.763195    79.314439   -2.1434795   -33.780367   -2901.5053 
   11500    168.51404   -148663.42    577.15228   -148086.27   -149989.76    5892.6973   -92252.145   -148725.09    33.255795    28.414471            0            0    61.670266   -62365.642            0       21.055       21.055      121.055       21.055       21.055      121.055           90           90           90    53665.258   0.65143209   -4001.3976    -4164.603    869.67146    105.12226   -118.88501    -56.99512   -2432.1097 
   11600    172.25606   -148659.35    589.96852   -148069.38   -150126.81    5852.0714   -92205.235   -148719.42    38.078518    21.987831            0            0     60.06635   -62366.253            0       21.055       21.055      121.055       21.055       21.055      121.055           90           90           90    53665.258   0.65143209   -4049.6158   -4040.3182    203.56377   -32.782034   -121.58169    -228.8181   -2628.7901 
   11700    167.64172   -148644.43    574.16464   -148070.27   -150429.92    5783.0685   -92118.856   -148701.07     30.15814    26.480253            0            0    56.638393   -62365.284            0       21.055       21.055      121.055       21.055       21.055      121.055           90           90           90    53665.258   0.65143209    -4398.801   -3948.7893   -697.22573   -194.12458    38.351924   -244.42944   -3014.9387 
   11800    172.92067   -148672.87    592.24477   -148080.63   -150370.14    5791.9212   -92162.086   -148735.12    32.094873    30.149493            0            0    62.244366   -62364.954            0       21.055       21.055      121.055       21.055       21.055      121.055           90           90           90    53665.258   0.65143209   -4372.5917   -4189.5474   -213.83725   -41.715939   -115.40907    -123.6798   -2925.3255 
   11900    168.18422   -148688.17    576.02266   -148112.15   -150134.18     5843.066   -92221.862   -148746.02    31.059231    26.783759            0            0     57.84299   -62367.221            0       21.055       21.055      121.055       21.055       21.055      121.055           90           90           90    53665.258   0.65143209   -3957.8193   -4157.5248     364.6589    95.530129    24.339955    31.216405   -2583.5617 
   12000    161.76606   -148671.03    554.04078   -148116.99   -149986.41    5878.1506     -92235.4   -148722.54    28.359323    23.157402            0            0    51.516724   -62365.293            0       21.055       21.055      121.055       21.055       21.055      121.055           90           90           90    53665.258   0.65143209   -3715.2062   -4023.8237    573.29623    72.883311   -3.9440352    103.09074   -2388.5779 
   12100    165.57896   -148655.88    567.09977   -148088.78   -150278.75    5805.7737   -92147.094   -148707.19     29.90065    21.418523            0            0    51.319173   -62365.874            0       21.055       21.055      121.055       21.055       21.055      121.055           90           90           90    53665.258   0.65143209   -3928.5865   -4184.4437   -281.41301   -119.46957    146.05908    201.40151   -2798.1477 
   12200    168.79827   -148648.54    578.12578   -148070.41   -150273.82    5804.2027   -92144.027   -148705.13    30.200397    26.387412            0            0    56.587809   -62365.303            0       21.055       21.055      121.055       21.055       21.055      121.055           90           90           90    53665.258   0.65143209   -3910.8064    -3972.877   -562.24121    -76.93827    110.78051    210.95917   -2815.3082 
   12300     174.5412   -148670.14    597.79501   -148072.35   -150193.32    5814.7733   -92176.527   -148725.81    28.518369    27.146956            0            0    55.665325   -62364.056            0       21.055       21.055      121.055       21.055       21.055      121.055           90           90           90    53665.258   0.65143209   -4052.5725   -4122.5611    45.208122    174.60618    53.309716    115.55699   -2709.9752 
   12400    166.75046   -148654.37    571.11211   -148083.25   -150029.14    5858.6668   -92203.258      -148710    32.183054    23.454627            0            0    55.637681   -62365.411            0       21.055       21.055      121.055       21.055       21.055      121.055           90           90           90    53665.258   0.65143209   -4087.1578   -3868.4475    496.78359    71.053741   -101.96818    184.63514   -2486.2739 
   12500    167.77593   -148674.49     574.6243   -148099.86   -150262.88    5817.2979   -92182.555   -148731.06    32.768008    23.801582            0            0     56.56959     -62365.8            0       21.055       21.055      121.055       21.055       21.055      121.055           90           90           90    53665.258   0.65143209   -4138.2208   -4207.8503    54.964451   -190.26238    -39.06478   -220.33307   -2763.7022 
   12600    162.33308   -148673.49    555.98281   -148117.51   -150495.06    5785.0874   -92150.403   -148729.62    30.146822    25.988796            0            0    56.135619   -62364.308            0       21.055       21.055      121.055       21.055       21.055      121.055           90           90           90    53665.258   0.65143209   -4319.0105   -4223.6085   -570.81093   -177.25815    94.223191   -262.22714     -3037.81 
   12700    164.20979   -148668.83    562.41044   -148106.42   -150275.68    5826.7668    -92192.45   -148730.36    31.184898    30.345801            0            0      61.5307   -62364.676            0       21.055       21.055      121.055       21.055       21.055      121.055           90           90           90    53665.258   0.65143209   -4289.8013   -4124.2977     99.04669    30.241918    -164.3962    -193.2237   -2771.6841 
   12800    177.32143   -148677.25    607.31715   -148069.93   -150175.25    5842.5717   -92215.544   -148738.13    33.388913    27.491153            0            0    60.880066   -62365.159            0       21.055       21.055      121.055       21.055       21.055      121.055           90           90           90    53665.258   0.65143209    -4171.837   -4313.3692     415.2701    163.06323   -77.543941   -53.573651   -2689.9787 
   12900    175.36532   -148663.23    600.61758   -148062.61   -150294.22    5817.8041   -92178.685   -148725.98    35.294196    27.457247            0            0    62.751442   -62365.099            0       21.055       21.055      121.055       21.055       21.055      121.055           90           90           90    53665.258   0.65143209   -4030.8575    -4284.229   -238.94863    9.7326245    197.31272    69.927431    -2851.345 
   13000    173.50925   -148670.24    594.26064   -148075.98   -150385.96    5804.9022   -92177.096   -148738.18    37.039054    30.898216            0            0     67.93727   -62365.985            0       21.055       21.055      121.055       21.055       21.055      121.055           90           90           90    53665.258   0.65143209   -4263.2824   -4330.0961   -261.04565   -192.78917    101.89876    124.86057   -2951.4747 
   13100    165.97748   -148668.08    568.46471   -148099.62   -150376.34    5818.5955   -92183.855   -148731.28    34.715059    28.479768            0            0    63.194827    -62366.02            0       21.055       21.055      121.055       21.055       21.055      121.055           90           90           90    53665.258   0.65143209   -4282.0025   -4267.8972   -177.05358   -80.369772   -36.119873    265.20362   -2908.9844 
   13200    167.77338   -148692.05    574.61557   -148117.43   -150298.36    5831.3835    -92213.18   -148747.96    32.762105    23.149541            0            0    55.911645   -62366.161            0       21.055       21.055      121.055       21.055       21.055      121.055           90           90           90    53665.258   0.65143209    -4184.935   -4387.7153    212.88861    137.98775    139.73795    223.71785   -2786.5872 
   13300    159.18408   -148659.47    545.19762   -148114.27   -150188.37    5858.6797   -92211.925   -148718.84    33.619278    25.749818            0            0    59.369096   -62365.594            0       21.055       21.055      121.055       21.055       21.055      121.055           90           90           90    53665.258   0.65143209   -4154.3214   -4071.7132    275.76924    72.169024     161.9186   -57.990288   -2650.0885 
   13400    173.17062   -148669.56    593.10084   -148076.46   -150402.83    5798.4131   -92163.662   -148730.02    32.713465    27.742705            0            0     60.45617   -62364.767            0       21.055       21.055      121.055       21.055       21.055      121.055           90           90           90    53665.258   0.65143209    -4131.319   -4505.2275   -280.70643   -109.19635   -67.340971   -157.04678   -2972.4176 
   13500    167.21353    -148634.2    572.69809    -148061.5   -150297.79    5818.1857   -92143.557   -148690.65    36.994488     19.45479            0            0    56.449278   -62365.274            0       21.055       21.055      121.055       21.055       21.055      121.055           90           90           90    53665.258   0.65143209   -3963.2643   -4385.1565   -223.53728    10.067012   -179.39781   -170.07281   -2857.3194 
   13600    174.20689   -148662.81    596.65002   -148066.16   -150218.04    5827.4949   -92177.982   -148714.17    30.498142    20.864903            0            0    51.363044   -62363.682            0       21.055       21.055      121.055       21.055       21.055      121.055           90           90           90    53665.258   0.65143209   -4243.2745   -4335.2961    330.14203    140.74097   -72.023565   -216.13095   -2749.4762 
   13700    169.40835   -148673.01    580.21527   -148092.79   -150194.96    5833.0328    -92193.54      -148726    29.956833     23.03054            0            0    52.987373   -62365.489            0       21.055       21.055      121.055       21.055       21.055      121.055           90           90           90    53665.258   0.65143209    -4011.726   -4006.6553    -39.45599    119.37891   -26.756349   -303.08167   -2685.9458 
   13800    163.94143   -148667.79    561.49132    -148106.3   -150207.44    5831.8377    -92186.54    -148721.3    30.914119    22.589444            0            0    53.503564   -62366.596            0       21.055       21.055      121.055       21.055       21.055      121.055           90           90           90    53665.258   0.65143209   -4029.0575   -4145.9234    121.08132   -76.965008   -155.96823   -107.44169   -2684.6332 
   13900    164.33753   -148657.14    562.84793    -148094.3   -150273.54    5811.1332   -92159.074   -148713.49    30.091977    26.252204            0            0    56.344181   -62365.548            0       21.055       21.055      121.055       21.055       21.055      121.055           90           90           90    53665.258   0.65143209   -4233.2895   -3874.8628   -245.14135   -161.38579   0.97526012    145.57217   -2784.4312 
   14000    170.95816   -148661.58    585.52329   -148076.06   -150039.36    5863.0955   -92214.359   -148717.78    30.240137     25.95921            0            0    56.199347   -62366.514            0       21.055       21.055      121.055       21.055       21.055      121.055           90           90           90    53665.258   0.65143209   -4111.4725   -3823.5892    409.47563    18.084236    81.338589    103.75937   -2508.5287 
   14100    173.64879   -148668.84    594.73855    -148074.1   -150237.65    5814.6129   -92181.316   -148732.72    32.398946    31.486655            0            0    63.885601   -62366.019            0       21.055       21.055      121.055       21.055       21.055      121.055           90           90           90    53665.258   0.65143209   -4045.8982   -4255.4892    8.2221508    145.53122    174.99799    90.075395   -2764.3884 
   14200    170.39973   -148662.53    583.61067   -148078.92   -150323.55    5807.6447   -92164.925   -148722.88     33.45363    26.892686            0            0    60.346316     -62365.6            0       21.055       21.055      121.055       21.055       21.055      121.055           90           90           90    53665.258   0.65143209   -3978.9198    -4298.598   -326.38741  -0.53524798    47.299731    252.44445   -2867.9684 
   14300    173.55504   -148683.03    594.41747   -148088.61    -150229.2    5824.6251   -92195.287    -148736.4    30.858627    22.511308            0            0    53.369934   -62365.739            0       21.055       21.055      121.055       21.055       21.055      121.055           90           90           90    53665.258   0.65143209    -4098.949   -4153.8192    47.661992   -180.58338   -44.774428    17.673405   -2735.0354 
   14400    167.63862   -148671.64    574.15401   -148097.48   -150244.81    5829.9562   -92191.087   -148727.55    33.196736    22.718149            0            0    55.914885    -62366.42            0       21.055       21.055      121.055       21.055       21.055      121.055           90           90           90    53665.258   0.65143209   -4168.2448   -4119.1029    56.396892   -65.011053     92.63248   -78.722223   -2743.6503 
   14500    167.51064   -148673.33    573.71569   -148099.62   -150406.62    5801.9765   -92173.755   -148735.99    36.950785    25.704332            0            0    62.655116   -62364.209            0       21.055       21.055      121.055       21.055       21.055      121.055           90           90           90    53665.258   0.65143209   -4432.4029   -4265.8618   -144.75409    108.37925   -185.26185   -102.17491   -2947.6729 
   14600    169.30314   -148660.04     579.8549   -148080.18   -150318.05    5817.5121   -92175.416   -148724.14    36.018206    28.086301            0            0    64.104507   -62366.237            0       21.055       21.055      121.055       21.055       21.055      121.055           90           90           90    53665.258   0.65143209   -4086.5973   -4318.5685   -172.86873    163.48996   -152.25623   -203.17677   -2859.3448 
   14700    179.04501   -148671.02    613.22033    -148057.8   -150197.99    5823.0898   -92183.766   -148727.48    30.040256    26.418755            0            0    56.459011   -62366.806            0       21.055       21.055      121.055       21.055       21.055      121.055           90           90           90    53665.258   0.65143209   -4103.4963    -4273.045    172.94169   -110.13737   -174.11123   -192.93614   -2734.5332 
   14800    168.67902   -148637.21    577.71734   -148059.49   -150220.06    5831.9615   -92158.175   -148692.12     30.98654    23.923435            0            0    54.909975   -62365.909            0       21.055       21.055      121.055       21.055       21.055      121.055           90           90           90    53665.258   0.65143209   -4045.1477     -4211.97   -24.581022   -186.36842    84.907375   -161.65301   -2760.5663 
   14900    163.79367   -148653.37    560.98524   -148092.38   -150281.95    5828.9023    -92178.18   -148715.74    33.133671      29.2402            0            0    62.373871   -62366.465            0       21.055       21.055      121.055       21.055       21.055      121.055           90           90           90    53665.258   0.65143209   -4301.5152   -4189.6386     98.29632    98.792648    57.101238     54.35847   -2797.6192 
   15000     168.9491   -148686.13    578.64235   -148107.48    -150337.2     5811.316   -92193.979   -148748.53    33.927615    28.475654            0            0    62.403269   -62365.868            0       21.055       21.055      121.055       21.055       21.055      121.055           90           90           90    53665.258   0.65143209   -4254.7817   -4359.1383    67.162717    233.41699    33.501753    145.29432   -2848.9191 
   15100    166.41171   -148666.14    569.95192   -148096.19   -150157.93     5846.775   -92207.631   -148726.04    35.012807     24.88618            0            0    59.898988   -62365.185            0       21.055       21.055      121.055       21.055       21.055      121.055           90           90           90    53665.258   0.65143209   -4114.8192   -4143.6851     355.5993    29.415276    56.999193    341.19199   -2634.3017 
   15200    165.98858   -148647.02    568.50272   -148078.52   -150232.44    5835.5458   -92174.623   -148703.28    35.507988     20.75453            0            0    56.262517   -62364.205            0       21.055       21.055      121.055       21.055       21.055      121.055           90           90           90    53665.258   0.65143209   -3871.7846   -4477.6733    93.207326   -113.13886    302.82791    83.205475   -2752.0835 
   15300    172.13347    -148656.4    589.54866   -148066.85   -150356.25    5797.0248   -92150.015   -148717.01    30.574879    30.027739            0            0    60.602618   -62364.016            0       21.055       21.055      121.055       21.055       21.055      121.055           90           90           90    53665.258   0.65143209   -4241.6694   -4301.0098   -232.82519   -25.259803   -98.597745   -49.037292   -2925.1681 
   15400    178.37747   -148675.78    610.93405   -148064.85   -150379.94    5785.5201   -92159.908    -148738.6    30.437419    32.380096            0            0    62.817515   -62364.213            0       21.055       21.055      121.055       21.055       21.055      121.055           90           90           90    53665.258   0.65143209   -4488.1497   -4195.0773   -190.78062    168.57676   -104.21425    21.846143   -2958.0025 
   15500    170.43277   -148681.91    583.72385   -148098.19   -150299.19    5811.2566   -92187.389   -148739.76    29.919025    27.928554            0            0    57.847579   -62363.628            0       21.055       21.055      121.055       21.055       21.055      121.055           90           90           90    53665.258   0.65143209   -4235.7322   -4241.7493     40.78449    76.633942   -119.94576    -139.1326   -2812.2324 
   15600    162.23772   -148668.95    555.65621    -148113.3    -150316.7    5820.5211   -92187.484   -148732.94    37.381706    26.602596            0            0    63.984302   -62365.975            0       21.055       21.055      121.055       21.055       21.055      121.055           90           90           90    53665.258   0.65143209   -4255.9779   -4287.2434    97.325794   -207.02919   -142.90461   -233.95513   -2815.2985 
   15700    164.69238   -148658.35    564.06329   -148094.29   -150243.97    5824.2368   -92182.049   -148724.03    32.144249     33.53438            0            0    65.678629   -62366.215            0       21.055       21.055      121.055       21.055       21.055      121.055           90           90           90    53665.258   0.65143209   -4079.1691   -4226.8388    66.002822   -87.965563   -147.57138   -112.30565   -2746.6683 
   15800    171.62413   -148658.05     587.8042   -148070.24    -150316.7    5800.8479   -92158.322   -148723.34    32.197718    33.093003            0            0    65.290721   -62365.866            0       21.055       21.055      121.055       21.055       21.055      121.055           90           90           90    53665.258   0.65143209   -4094.8449   -4206.7403   -309.32833    14.445367   -12.684892    -25.98338   -2870.3045 
   15900      173.601   -148661.35    594.57486   -148066.78   -150309.18     5802.932   -92157.521   -148720.72    31.240443    28.125605            0            0    59.366049   -62366.129            0       21.055       21.055      121.055       21.055       21.055      121.055           90           90           90    53665.258   0.65143209   -4244.3427   -4106.2441   -244.79299     62.47202    149.62232    70.795854   -2865.1266 
   16000    171.02844   -148659.35    585.76399   -148073.59   -150066.37    5861.9194   -92213.589   -148718.48    32.215806    26.912739            0            0    59.128545   -62366.809            0       21.055       21.055      121.055       21.055       21.055      121.055           90           90           90    53665.258   0.65143209   -3885.1462   -4165.8579    412.41174    -81.26632   -41.349321    184.09373   -2546.1974 
   16100    167.96381   -148680.49    575.26776   -148105.22   -150190.23     5842.724   -92215.521   -148739.24    31.015896     27.72715            0            0    58.743046   -62366.438            0       21.055       21.055      121.055       21.055       21.055      121.055           90           90           90    53665.258   0.65143209    -4063.582   -4337.5981    409.09806   -72.814095    81.625945    261.66729   -2664.0274 
   16200    161.06486   -148680.06    551.63921   -148128.42   -150358.67    5817.3011   -92189.597   -148738.51    33.037647    25.409663            0            0     58.44731   -62366.215            0       21.055       21.055      121.055       21.055       21.055      121.055           90           90           90    53665.258   0.65143209   -4061.2186    -4426.005   -61.576658    93.907413    45.138978    107.95786   -2849.6001 
   16300    166.28387   -148682.98    569.51408   -148113.47   -150440.39    5791.9904   -92167.441   -148740.23    29.306629    27.940361            0            0     57.24699   -62364.781            0       21.055       21.055      121.055       21.055       21.055      121.055           90           90           90    53665.258   0.65143209   -4295.9328   -4278.0305   -345.37925    115.66719    34.347915   -88.544194   -2973.1142 
   16400    168.50333   -148668.14     577.1156   -148091.02   -150118.71    5845.1577   -92210.341   -148729.64    32.259331    29.240464            0            0    61.499795   -62364.453            0       21.055       21.055      121.055       21.055       21.055      121.055           90           90           90    53665.258   0.65143209   -4043.0401   -3937.1366    207.79981   -38.200843    114.82829   -22.946426   -2590.7923 
   16500    166.60536   -148646.34    570.61514   -148075.72   -150135.04    5844.0052   -92189.249   -148709.84     33.68255    29.820961            0            0    63.503511   -62364.598            0       21.055       21.055      121.055       21.055       21.055      121.055           90           90           90    53665.258   0.65143209   -4288.9182   -3840.2764    235.58966    -240.9202   -15.657194   -270.17636   -2631.2016 
   16600    174.75165   -148667.11    598.51578   -148068.59   -150352.35    5793.5357    -92158.21   -148730.09    34.077943    28.904943            0            0    62.982886   -62365.417            0       21.055       21.055      121.055       21.055       21.055      121.055           90           90           90    53665.258   0.65143209   -4295.7803   -4232.2929   -225.85181    38.550722   -385.92382   -119.99714    -2917.975 
[...]
  195700    177.95641   -148680.98    609.49195   -148071.48   -150409.03    5809.5848   -92191.076   -148747.16    40.573747    25.607136            0            0    66.180884   -62365.667            0       21.055       21.055      121.055       21.055       21.055      121.055           90           90           90    53665.258   0.65143209   -4547.1612   -4416.6332    3.7136463   -33.631684    267.16505    345.85701   -2986.6936 
  195800    169.34544   -148646.51    579.99978   -148066.51   -150261.85    5849.0695   -92198.082   -148714.96    40.166522    28.281769            0            0    68.448291   -62365.949            0       21.055       21.055      121.055       21.055       21.055      121.055           90           90           90    53665.258   0.65143209    -4159.771   -4479.9585    224.74257    12.043269    380.11467    151.94362   -2804.9956 
  195900    171.17013   -148663.79    586.24927   -148077.54   -150463.38    5799.0931   -92163.289   -148730.06    37.575025    28.701174            0            0    66.276199   -62365.867            0       21.055       21.055      121.055       21.055       21.055      121.055           90           90           90    53665.258   0.65143209   -4583.8648    -4316.585   -244.77694    42.002457    268.12329    -20.77065   -3048.4089 
  196000    166.78686   -148673.73    571.23677   -148102.49   -150371.36    5825.9552   -92199.096   -148739.82    37.937119    28.158335            0            0    66.095454   -62366.681            0       21.055       21.055      121.055       21.055       21.055      121.055           90           90           90    53665.258   0.65143209   -4534.5581   -4276.1949    113.91222   -45.619548    229.71422   -223.93245   -2898.9469 
  196100     163.8874   -148668.86    561.30629   -148107.55   -150291.55    5843.2935   -92210.085   -148732.16    37.136657    26.172137            0            0    63.308794   -62365.373            0       21.055       21.055      121.055       21.055       21.055      121.055           90           90           90    53665.258   0.65143209   -4404.9664    -4021.783    55.207764    -37.73481    28.799474   -240.20531   -2790.5139 
  196200    170.92225   -148664.11    585.40028   -148078.71   -150254.42    5835.5987   -92193.097      -148723    33.823576    25.062949            0            0    58.886525   -62365.503            0       21.055       21.055      121.055       21.055       21.055      121.055           90           90           90    53665.258   0.65143209   -4427.1824   -4044.6168    132.05327   -142.04695   -8.4387328   -353.78244   -2779.9153 
  196300    171.69031   -148645.28    588.03085   -148057.25   -150108.74    5860.1652   -92202.403   -148707.95    36.641551     26.02182            0            0    62.663371   -62365.708            0       21.055       21.055      121.055       21.055       21.055      121.055           90           90           90    53665.258   0.65143209   -4081.7259   -4091.3571    309.48893   -15.750396   -479.74073    139.80142    -2621.198 
  196400    176.30591   -148668.97    603.83904   -148065.14   -150356.14    5798.5763   -92168.268   -148734.51    35.332698    30.206646            0            0    65.539344   -62364.822            0       21.055       21.055      121.055       21.055       21.055      121.055           90           90           90    53665.258   0.65143209    -4189.958   -4089.7535   -501.97178    44.409295   -273.11078    -57.77695   -2927.2278 
  196500    172.83061   -148673.72    591.93633   -148081.78   -150340.28    5797.4439   -92167.641   -148736.03    31.601036    30.714115            0            0     62.31515   -62365.834            0       21.055       21.055      121.055       21.055       21.055      121.055           90           90           90    53665.258   0.65143209   -4175.5613   -4087.1245    -394.3987   -25.671701   -206.50105    101.38951   -2885.6948 
  196600    167.92802   -148671.89    575.14518   -148096.75   -150207.85    5821.1218   -92186.079   -148731.46    28.794654    30.767735            0            0    59.562389     -62366.5            0       21.055       21.055      121.055       21.055       21.055      121.055           90           90           90    53665.258   0.65143209   -4125.0654   -3974.7922    7.7606064   -38.909388    -15.24561    519.30126   -2697.3657 
  196700     168.5427   -148680.44    577.25044   -148103.19   -150108.99    5845.6945   -92219.368   -148739.32    30.938018     27.94325            0            0    58.881268   -62365.648            0       21.055       21.055      121.055       21.055       21.055      121.055           90           90           90    53665.258   0.65143209   -4294.0406   -3863.2755    468.84132   -15.923103    171.78005    185.23479   -2562.8249 
  196800    163.05468   -148657.27    558.45426   -148098.81   -150294.76    5814.7068   -92159.808   -148710.53    28.673898    24.592013            0            0    53.265912   -62365.432            0       21.055       21.055      121.055       21.055       21.055      121.055           90           90           90    53665.258   0.65143209    -4306.039   -3931.9453   -179.33692    37.620319    280.21123    74.892016   -2805.7737 
  196900    169.09628   -148650.19    579.14643   -148071.05   -150301.91    5796.6848   -92138.967   -148706.66     31.63575    24.834823            0            0    56.470574    -62364.38            0       21.055       21.055      121.055       21.055       21.055      121.055           90           90           90    53665.258   0.65143209   -4134.8096   -4119.8625   -296.47609    161.98637    420.45383   -88.837969   -2850.3827 
  197000    171.61955   -148646.41     587.7885   -148058.62   -150147.62    5831.1801   -92165.163   -148699.63    30.342321    22.875785            0            0    53.218106   -62365.646            0       21.055       21.055      121.055       21.055       21.055      121.055           90           90           90    53665.258   0.65143209     -3909.57   -4125.3141    27.512022   -79.444945    137.73494   -204.52717    -2669.124 
  197100    171.47341   -148655.88    587.28799   -148068.59    -149901.1     5890.085   -92237.648    -148712.9    32.763236    24.253866            0            0    57.017101   -62365.335            0       21.055       21.055      121.055       21.055       21.055      121.055           90           90           90    53665.258   0.65143209   -3928.9345   -3988.9642    893.67224   -233.40076    -83.03298    -319.4491   -2341.4088 
  197200    166.60724   -148668.61    570.62159   -148097.99   -150512.33    5771.3074   -92132.004   -148725.15    33.945832    22.599507            0            0    56.545339   -62364.458            0       21.055       21.055      121.055       21.055       21.055      121.055           90           90           90    53665.258   0.65143209    -4576.524   -4308.7159   -369.20647   -20.056713   -74.508889   -282.20724   -3084.8154 
  197300    167.91286   -148678.75    575.09328   -148103.65   -150571.78    5753.5951   -92115.974   -148728.02    29.449936    19.819592            0            0    49.269528   -62365.636            0       21.055       21.055      121.055       21.055       21.055      121.055           90           90           90    53665.258   0.65143209   -4396.7163   -4119.3108   -944.59998    149.35867   -283.96807    37.915268   -3153.5424 
  197400    172.26083   -148680.55    589.98486   -148090.57   -150180.87    5842.3555   -92214.962   -148737.26    35.770949    20.938978            0            0    56.709928   -62364.654            0       21.055       21.055      121.055       21.055       21.055      121.055           90           90           90    53665.258   0.65143209   -4322.4196   -4137.5024    447.54856    71.086316   -185.73221    84.045979   -2670.7911 
  197500    171.63644   -148671.89    587.84636   -148084.04   -150022.67    5874.0894   -92235.657   -148726.76    35.000456    19.871662            0            0    54.872118   -62365.191            0       21.055       21.055      121.055       21.055       21.055      121.055           90           90           90    53665.258   0.65143209   -3974.6617   -4253.1246    796.78039   -188.28219   -375.07727    272.35419    -2477.002 
  197600    169.50202   -148661.43    580.53608    -148080.9   -150362.57    5808.4214   -92157.815   -148714.53     32.87656    20.220023            0            0    53.096582   -62365.135            0       21.055       21.055      121.055       21.055       21.055      121.055           90           90           90    53665.258   0.65143209   -4316.1525   -4222.5321   -207.24894   -129.24745    172.84438    310.00526   -2915.3112 
  197700    162.15246   -148632.09    555.36421   -148076.72   -150560.67    5766.5245   -92087.544   -148685.77    32.091593    21.587012            0            0    53.678604   -62364.747            0       21.055       21.055      121.055       21.055       21.055      121.055           90           90           90    53665.258   0.65143209   -4284.4462   -4452.6431   -784.17717     169.6902    264.89721    119.88207   -3173.7555 
  197800    173.17961   -148654.71    593.13162   -148061.57   -150188.27    5841.1489   -92189.094   -148711.91    35.181455    22.024915            0            0     57.20637   -62363.968            0       21.055       21.055      121.055       21.055       21.055      121.055           90           90           90    53665.258   0.65143209    -4175.648   -4281.7597    305.54392    61.567073    277.91385     114.4482   -2717.2879 
  197900    168.98591   -148619.84    578.76842   -148041.07   -149994.64    5891.5305    -92216.29   -148688.71    42.834485    26.037492            0            0    68.871978   -62363.948            0       21.055       21.055      121.055       21.055       21.055      121.055           90           90           90    53665.258   0.65143209   -4202.1963   -3966.0553    679.96244   -269.30525    300.05111   -269.05248   -2496.0964 
  198000    177.96752    -148663.7       609.53   -148054.17   -150328.02    5816.4938   -92169.818   -148718.01    36.442076    17.865737            0            0    54.307813   -62364.687            0       21.055       21.055      121.055       21.055       21.055      121.055           90           90           90    53665.258   0.65143209   -4543.9983   -4235.3061    63.376394   -217.63305    182.21855     -290.776   -2905.3093 
  198100    166.53784    -148655.7    570.38391   -148085.31   -150692.35    5754.7945   -92108.212   -148719.12    37.806738    25.621907            0            0    63.428645   -62365.706            0       21.055       21.055      121.055       21.055       21.055      121.055           90           90           90    53665.258   0.65143209   -4636.6897    -4353.282   -1003.1234    85.757077   -131.35077   -157.47215   -3331.0317 
  198200    168.51473   -148668.08    577.15465   -148090.92   -150366.19     5821.202   -92186.694   -148731.43    35.375014    27.976227            0            0    63.351242   -62365.936            0       21.055       21.055      121.055       21.055       21.055      121.055           90           90           90    53665.258   0.65143209   -4240.3806   -4290.8795   -190.12143    198.19048   -366.12869   -314.87407   -2907.1272 
  198300    170.71369   -148672.55    584.68597   -148087.86   -150117.07    5868.7347   -92241.051   -148737.21    35.474524    29.183516            0            0    64.658041   -62364.893            0       21.055       21.055      121.055       21.055       21.055      121.055           90           90           90    53665.258   0.65143209   -4336.5636   -4214.5576    772.92649   -122.40173   -252.11381    -167.2393   -2592.7316 
  198400    173.48128   -148656.69    594.16483   -148062.53   -150269.34    5818.3616   -92178.147   -148725.91    38.991003    30.232139            0            0    69.223142   -62366.127            0       21.055       21.055      121.055       21.055       21.055      121.055           90           90           90    53665.258   0.65143209   -4137.2212    -4258.329   -63.441113   -147.78204   -253.44088    261.43906   -2819.6638 
  198500    173.18438   -148631.98    593.14797   -148038.83   -150475.78    5765.1326   -92087.003   -148687.35    30.114957    25.254739            0            0    55.369695   -62365.479            0       21.055       21.055      121.055       21.055       21.055      121.055           90           90           90    53665.258   0.65143209   -4237.0819   -4321.0883   -782.95622   -21.022184   -137.23624    365.97857   -3113.7088 
  198600    175.59845   -148652.29    601.41603   -148050.87   -150364.46    5787.2183   -92133.801   -148713.38    32.510731    28.580408            0            0    61.091138   -62366.797            0       21.055       21.055      121.055       21.055       21.055      121.055           90           90           90    53665.258   0.65143209   -4413.6279   -3983.0444   -471.57274    220.12602    57.901738    142.20731   -2956.0817 
  198700    172.00469   -148682.36    589.10761   -148093.25    -150081.2    5845.4567   -92220.613   -148741.38     28.45746    30.565666            0            0    59.023126   -62366.227            0       21.055       21.055      121.055       21.055       21.055      121.055           90           90           90    53665.258   0.65143209   -4047.4083   -3973.9741    401.36202    61.290628    265.24557    343.53048   -2540.0068 
  198800    166.79705   -148666.35    571.27167   -148095.08    -149986.6    5869.8234   -92227.148   -148722.57    28.126526    28.092274            0            0      56.2188   -62365.245            0       21.055       21.055      121.055       21.055       21.055      121.055           90           90           90    53665.258   0.65143209   -3957.4251   -4017.6693    724.65935   -121.54897    218.28779    216.23567   -2416.8117 
  198900    164.89146   -148645.63    564.74512   -148080.88   -150053.62    5850.2426   -92191.396   -148707.72    31.730831    30.363585            0            0    62.094416   -62366.567            0       21.055       21.055      121.055       21.055       21.055      121.055           90           90           90    53665.258   0.65143209   -3908.9706   -4051.6741    398.91829   -87.684785     383.8422   -245.13037   -2520.5755 
  199000     168.8885   -148642.97     578.4348   -148064.54   -150411.24    5770.3007   -92106.598   -148702.03    28.931025    30.126366            0            0    59.057391   -62365.734            0       21.055       21.055      121.055       21.055       21.055      121.055           90           90           90    53665.258   0.65143209   -4288.4149   -3999.8278   -706.92173    146.54519   -37.763544   -354.06841   -2998.3881 
  199100    179.96469    -148664.6    616.37019   -148048.23    -150062.5    5834.2344   -92186.985   -148718.12    26.416163    27.103094            0            0    53.519257    -62365.37            0       21.055       21.055      121.055       21.055       21.055      121.055           90           90           90    53665.258   0.65143209   -3924.6015   -3824.0979    27.754685    165.49833    12.589203   -212.26431   -2573.6483 
  199200    170.87746   -148646.54    585.24689    -148061.3    -149890.4    5870.2108   -92203.351   -148698.46    27.132973     24.78301            0            0    51.915983   -62365.318            0       21.055       21.055      121.055       21.055       21.055      121.055           90           90           90    53665.258   0.65143209   -3858.3419   -3722.5022     569.6914   -26.480438     -171.508    -280.7832   -2337.0509 
  199300    165.32964   -148663.96    566.24588   -148097.71   -150132.63     5836.669   -92184.573   -148713.88    27.686805    22.230525            0            0     49.91733   -62365.974            0       21.055       21.055      121.055       21.055       21.055      121.055           90           90           90    53665.258   0.65143209   -4210.6427   -3781.0146    191.57579   -184.38802   -319.71787   -37.016804   -2600.0272 
  199400    165.15142   -148664.02    565.63549   -148098.38   -150450.28    5776.8827   -92135.067   -148723.09    33.208282    25.860039            0            0    59.068321   -62364.904            0       21.055       21.055      121.055       21.055       21.055      121.055           90           90           90    53665.258   0.65143209   -4096.6289   -4079.8195   -838.64395   -40.245251   -292.54214    128.70995   -3005.0308 
  199500     170.2562    -148663.2    583.11909   -148080.08   -150247.46    5820.1423   -92174.567   -148720.73    30.208353    27.320829            0            0    57.529183   -62366.307            0       21.055       21.055      121.055       21.055       21.055      121.055           90           90           90    53665.258   0.65143209   -4009.3726   -4148.3935   -150.04697    60.342052     13.16767     277.4261    -2769.271 
  199600    169.09327   -148638.24    579.13611    -148059.1   -149903.56    5900.9633   -92228.214    -148693.4    31.700736    23.457112            0            0    55.157848   -62366.145            0       21.055       21.055      121.055       21.055       21.055      121.055           90           90           90    53665.258   0.65143209   -3731.1275    -3971.128    632.23324    17.780204    31.844075    380.50296   -2356.6741 
  199700    169.55286   -148641.69     580.7102   -148060.98   -150133.08    5863.3691   -92198.678   -148701.75    36.924355    23.131634            0            0    60.055988   -62366.438            0       21.055       21.055      121.055       21.055       21.055      121.055           90           90           90    53665.258   0.65143209   -3881.4216   -4231.0112    169.84556   -247.80123    227.28442    371.35699   -2647.5291 
  199800     166.8365   -148672.97    571.40681   -148101.56   -150521.98    5786.0057   -92154.256   -148733.85    39.022995    21.856518            0            0    60.879513     -62365.6            0       21.055       21.055      121.055       21.055       21.055      121.055           90           90           90    53665.258   0.65143209   -4090.7815    -4471.365   -715.59098   -76.925151    270.69577   -48.553769   -3092.5791 
  199900    162.75879   -148668.92    557.44085   -148111.48    -150424.9    5812.6343   -92177.924   -148730.35    35.772191     25.66295            0            0     61.43514   -62365.061            0       21.055       21.055      121.055       21.055       21.055      121.055           90           90           90    53665.258   0.65143209   -4295.9253   -4324.0765   -247.60969    170.38886    392.80909   -261.41392   -2955.8705 
  200000    171.21903   -148680.91    586.41675   -148094.49    -150127.3    5865.2296   -92240.263   -148741.02    33.908994    26.204585            0            0    60.113579   -62365.987            0       21.055       21.055      121.055       21.055       21.055      121.055           90           90           90    53665.258   0.65143209   -4340.5938   -3965.5991    514.18183    35.132076   -71.270765   -66.389027    -2597.337 
Loop time of 5773.3 on 1 procs for 200000 steps with 1150 atoms

Pair  time (%) = 1899.67 (32.9044)
Bond  time (%) = 1.60824 (0.0278564)
Kspce time (%) = 3835.91 (66.4422)
Neigh time (%) = 24.4511 (0.423521)
Comm  time (%) = 5.1387 (0.089008)
Outpt time (%) = 0.280233 (0.00485395)
Other time (%) = 6.24161 (0.108112)

Nlocal:    1150 ave 1150 max 1150 min
Histogram: 1 0 0 0 0 0 0 0 0 0
Nghost:    5404 ave 5404 max 5404 min
Histogram: 1 0 0 0 0 0 0 0 0 0
Neighs:    559878 ave 559878 max 559878 min
Histogram: 1 0 0 0 0 0 0 0 0 0

Total # of neighbors = 559878
Ave neighs/atom = 486.85
Ave special neighs/atom = 0.26087
Neighbor list builds = 2382
Dangerous builds = 0
