# LAMMPS data file written by Ovito Basic 3.0.0-dev791
129 atoms
3 atom types
0.0 13.1564102173 xlo xhi
0.0 11.3937854767 ylo yhi
0.0 25.3068199158 zlo zhi

Atoms  # charge

1 1 0.0 9.867307663 9.494821548 13.26995945
2 1 0.0 9.867307663 3.797929049 13.26995945
3 1 0.0 3.289102554 9.494821548 13.26995945
4 1 0.0 3.289102554 3.797929049 13.26995945
5 1 0.0 9.867307663 9.494821548 7.963140011
6 1 0.0 9.867307663 3.797929049 7.963140011
7 1 0.0 3.289102554 9.494821548 7.963140011
8 1 0.0 3.289102554 3.797929049 7.963140011
9 1 0.0 11.51185894 6.646375179 13.26995945
10 1 0.0 11.51185894 0.94948256 13.26995945
11 1 0.0 4.933653831 6.646375179 13.26995945
12 1 0.0 4.933653831 0.94948256 13.26995945
13 1 0.0 11.51185894 6.646375179 7.963140011
14 1 0.0 11.51185894 0.94948256 7.963140011
15 1 0.0 4.933653831 6.646375179 7.963140011
16 1 0.0 4.933653831 0.94948256 7.963140011
17 1 0.0 6.578205109 9.494821548 13.26995945
18 1 0.0 6.578205109 3.797929049 13.26995945
19 1 0.0 0.0 9.494821548 13.26995945
20 1 0.0 0.0 3.797929049 13.26995945
21 1 0.0 6.578205109 9.494821548 7.963140011
22 1 0.0 6.578205109 3.797929049 7.963140011
23 1 0.0 0.0 9.494821548 7.963140011
24 1 0.0 0.0 3.797929049 7.963140011
25 1 0.0 8.222756386 6.646375179 13.26995945
26 1 0.0 8.222756386 0.94948256 13.26995945
27 1 0.0 1.644551277 6.646375179 13.26995945
28 1 0.0 1.644551277 0.94948256 13.26995945
29 1 0.0 8.222756386 6.646375179 7.963140011
30 1 0.0 8.222756386 0.94948256 7.963140011
31 1 0.0 1.644551277 6.646375179 7.963140011
32 1 0.0 1.644551277 0.94948256 7.963140011
33 1 0.0 8.222756386 10.444304466 10.616550446
34 1 0.0 8.222756386 4.747411728 10.616550446
35 1 0.0 1.644551277 10.444304466 10.616550446
36 1 0.0 1.644551277 4.747411728 10.616550446
37 1 0.0 8.222756386 10.444304466 5.309728622
38 1 0.0 8.222756386 4.747411728 5.309728622
39 1 0.0 1.644551277 10.444304466 5.309728622
40 1 0.0 1.644551277 4.747411728 5.309728622
41 1 0.0 9.867307663 7.595857143 10.616550446
42 1 0.0 9.867307663 1.89896512 10.616550446
43 1 0.0 3.289102554 7.595857143 10.616550446
44 1 0.0 3.289102554 1.89896512 10.616550446
45 1 0.0 9.867307663 7.595857143 5.309728622
46 1 0.0 9.867307663 1.89896512 5.309728622
47 1 0.0 3.289102554 7.595857143 5.309728622
48 1 0.0 3.289102554 1.89896512 5.309728622
49 1 0.0 11.51185894 10.444304466 10.616550446
50 1 0.0 11.51185894 4.747411728 10.616550446
51 1 0.0 4.933653831 10.444304466 10.616550446
52 1 0.0 4.933653831 4.747411728 10.616550446
53 1 0.0 11.51185894 10.444304466 5.309728622
54 1 0.0 11.51185894 4.747411728 5.309728622
55 1 0.0 4.933653831 10.444304466 5.309728622
56 1 0.0 4.933653831 4.747411728 5.309728622
57 1 0.0 6.578205109 7.595857143 10.616550446
58 1 0.0 6.578205109 1.89896512 10.616550446
59 1 0.0 0.0 7.595857143 10.616550446
60 1 0.0 0.0 1.89896512 10.616550446
61 1 0.0 6.578205109 7.595857143 5.309728622
62 1 0.0 6.578205109 1.89896512 5.309728622
63 1 0.0 0.0 7.595857143 5.309728622
64 1 0.0 0.0 1.89896512 5.309728622
65 2 0.0 11.51185894 10.444303513 12.6289711
66 2 0.0 11.51185894 4.747411728 12.6289711
67 2 0.0 4.933653831 10.444303513 12.6289711
68 2 0.0 4.933653831 4.747411728 12.6289711
69 2 0.0 11.51185894 10.444303513 7.322149754
70 2 0.0 11.51185894 4.747411728 7.322149754
71 2 0.0 4.933653831 10.444303513 7.322149754
72 2 0.0 4.933653831 4.747411728 7.322149754
73 2 0.0 1.644549727 10.444304466 12.6289711
74 2 0.0 1.644549727 4.747411728 12.6289711
75 2 0.0 8.222754478 10.444304466 12.6289711
76 2 0.0 8.222754478 4.747411728 12.6289711
77 2 0.0 1.644549727 10.444304466 7.322149754
78 2 0.0 1.644549727 4.747411728 7.322149754
79 2 0.0 8.222754478 10.444304466 7.322149754
80 2 0.0 8.222754478 4.747411728 7.322149754
81 2 0.0 8.222756386 0.94948256 9.975560188
82 2 0.0 8.222756386 6.646375179 9.975560188
83 2 0.0 1.644551277 0.94948256 9.975560188
84 2 0.0 1.644551277 6.646375179 9.975560188
85 2 0.0 8.222756386 0.94948256 4.668738365
86 2 0.0 8.222756386 6.646375179 4.668738365
87 2 0.0 1.644551277 0.94948256 4.668738365
88 2 0.0 1.644551277 6.646375179 4.668738365
89 2 0.0 11.51185894 0.94948256 9.975560188
90 2 0.0 11.51185894 6.646375179 9.975560188
91 2 0.0 4.933653831 0.94948256 9.975560188
92 2 0.0 4.933653831 6.646375179 9.975560188
93 2 0.0 11.51185894 0.94948256 4.668738365
94 2 0.0 11.51185894 6.646375179 4.668738365
95 2 0.0 4.933653831 0.94948256 4.668738365
96 2 0.0 4.933653831 6.646375179 4.668738365
97 2 0.0 9.867307663 9.494821548 9.975560188
98 2 0.0 9.867307663 3.797929049 9.975560188
99 2 0.0 3.289102554 9.494821548 9.975560188
100 2 0.0 3.289102554 3.797929049 9.975560188
101 2 0.0 9.867307663 9.494821548 4.668738365
102 2 0.0 9.867307663 3.797929049 4.668738365
103 2 0.0 3.289102554 9.494821548 4.668738365
104 2 0.0 3.289102554 3.797929049 4.668738365
105 2 0.0 6.578205109 9.494821548 9.975560188
106 2 0.0 6.578205109 3.797929049 9.975560188
107 2 0.0 0.0 9.494821548 9.975560188
108 2 0.0 0.0 3.797929049 9.975560188
109 2 0.0 6.578205109 9.494821548 4.668738365
110 2 0.0 6.578205109 3.797929049 4.668738365
111 2 0.0 0.0 9.494821548 4.668738365
112 2 0.0 0.0 3.797929049 4.668738365
113 2 0.0 9.867307663 7.595857143 12.6289711
114 2 0.0 9.867307663 1.89896512 12.6289711
115 2 0.0 3.289102554 7.595857143 12.6289711
116 2 0.0 3.289102554 1.89896512 12.6289711
117 2 0.0 9.867307663 7.595857143 7.322149754
118 2 0.0 9.867307663 1.89896512 7.322149754
119 2 0.0 3.289102554 7.595857143 7.322149754
120 2 0.0 3.289102554 1.89896512 7.322149754
121 2 0.0 6.578205109 7.595857143 12.6289711
122 2 0.0 6.578205109 1.89896512 12.6289711
123 2 0.0 0.0 7.595857143 12.6289711
124 2 0.0 0.0 1.89896512 12.6289711
125 2 0.0 6.578205109 7.595857143 7.322149754
126 2 0.0 6.578205109 1.89896512 7.322149754
127 2 0.0 0.0 7.595857143 7.322149754
128 2 0.0 0.0 1.89896512 7.322149754
129 3 0.0 6.578205108 5.696892738 13.26995945
