# LAMMPS data file written by Ovito Basic 3.0.0-dev791
56 atoms
3 atom types
0.0 8.5390558243 xlo xhi
0.0 8.5390558243 ylo yhi
0.0 8.5390558243 zlo zhi

Atoms  # charge

1 1 0.0 7.471673965 7.471673965 5.336909771
2 1 0.0 1.067381978 7.471673965 3.202146053
3 1 0.0 3.202146053 1.067381978 7.471673965
4 1 0.0 1.067381978 1.067381978 5.336909771
5 1 0.0 7.471673965 3.202146053 1.067381978
6 1 0.0 1.067381978 3.202146053 7.471673965
7 1 0.0 3.202146053 5.336909771 3.202146053
8 1 0.0 1.067381978 5.336909771 1.067381978
9 1 0.0 3.202146053 7.471673965 1.067381978
10 1 0.0 5.336909771 7.471673965 7.471673965
11 1 0.0 7.471673965 1.067381978 3.202146053
12 1 0.0 5.336909771 1.067381978 1.067381978
13 1 0.0 3.202146053 3.202146053 5.336909771
14 1 0.0 5.336909771 3.202146053 3.202146053
15 1 0.0 7.471673965 5.336909771 7.471673965
16 1 0.0 5.336909771 5.336909771 5.336909771
17 2 0.0 0.0 4.269527912 4.269527912
18 2 0.0 2.134763956 2.134763956 2.134763956
19 2 0.0 0.0 0.0 0.0
20 2 0.0 2.134763956 6.404292107 6.404292107
21 2 0.0 4.269527912 4.269527912 0.0
22 2 0.0 6.404292107 2.134763956 6.404292107
23 2 0.0 4.269527912 0.0 4.269527912
24 2 0.0 6.404292107 6.404292107 2.134763956
25 3 0.0 0.961615741 7.577439785 5.231143951
26 3 0.0 3.096379757 7.365907669 3.096379757
27 3 0.0 1.173148155 5.442676067 3.096379757
28 3 0.0 7.577439785 0.961615741 5.231143951
29 3 0.0 1.173148155 7.365907669 1.173148155
30 3 0.0 7.577439785 7.577439785 3.307912111
31 3 0.0 0.961615741 0.961615741 3.307912111
32 3 0.0 3.096379757 5.442676067 1.173148155
33 3 0.0 0.961615741 3.307912111 0.961615741
34 3 0.0 3.096379757 3.096379757 7.365907669
35 3 0.0 1.173148155 1.173148155 7.365907669
36 3 0.0 7.577439785 5.231143951 0.961615741
37 3 0.0 1.173148155 3.096379757 5.442676067
38 3 0.0 7.577439785 3.307912111 7.577439785
39 3 0.0 0.961615741 5.231143951 7.577439785
40 3 0.0 3.096379757 1.173148155 5.442676067
41 3 0.0 5.231143951 7.577439785 0.961615741
42 3 0.0 7.365907669 7.365907669 7.365907669
43 3 0.0 5.442676067 5.442676067 7.365907669
44 3 0.0 3.307912111 0.961615741 0.961615741
45 3 0.0 5.442676067 7.365907669 5.442676067
46 3 0.0 3.307912111 7.577439785 7.577439785
47 3 0.0 5.231143951 0.961615741 7.577439785
48 3 0.0 7.365907669 5.442676067 5.442676067
49 3 0.0 5.231143951 3.307912111 5.231143951
50 3 0.0 7.365907669 3.096379757 3.096379757
51 3 0.0 5.442676067 1.173148155 3.096379757
52 3 0.0 3.307912111 5.231143951 5.231143951
53 3 0.0 5.442676067 3.096379757 1.173148155
54 3 0.0 3.307912111 3.307912111 3.307912111
55 3 0.0 5.231143951 5.231143951 3.307912111
56 3 0.0 7.365907669 1.173148155 1.173148155
