LAMMPS data file via write_data, version 12 Dec 2018, timestep = 17000000

5680 atoms
3 atom types

7.6558462699210551e+01 1.1544153730078783e+02 xlo xhi
7.6558462699210551e+01 1.1544153730078783e+02 ylo yhi
7.6558462699210551e+01 1.1544153730078783e+02 zlo zhi

Masses

1 1.008
2 12
3 14

Atoms # charge

3070 1 1.3072308774242117e-01 7.9711153616665712e+01 8.1691826768151245e+01 7.8231573854898826e+01 0 0 0
3069 2 -9.0447343231568583e-02 7.9118724766670212e+01 8.1830522312259859e+01 7.7336231354806813e+01 0 0 0
3075 1 6.6362363518501305e-02 8.0126648875218734e+01 7.9356618818945293e+01 7.7976320476193308e+01 0 0 0
3247 1 7.6678587274126714e-02 8.0732505968192186e+01 7.9077221275921374e+01 8.2214553826528544e+01 0 1 0
3241 2 -7.2054817348522551e-02 8.2261801195989847e+01 7.7932485013661449e+01 8.0519922974225437e+01 0 1 0
3242 1 7.9747840926023245e-02 8.1709498615913731e+01 7.8849166109479739e+01 8.0362005090066759e+01 0 1 0
3256 2 1.1854952983882194e-01 7.8812714577873351e+01 8.0480512761673211e+01 8.1339314467618621e+01 0 1 0
3257 3 -1.8986567700790866e-01 7.9326093437900539e+01 8.1500513589512977e+01 8.1044396658125237e+01 0 1 0
3251 2 -5.6330246787301294e-02 7.8172875228531495e+01 7.9252484046005634e+01 8.1756564745948637e+01 0 1 0
4762 1 9.4533047124659486e-02 8.1129772921266394e+01 8.1052978499196840e+01 8.3853724404296628e+01 0 0 0
3248 2 -1.2397760878208164e-01 7.8986994844514314e+01 7.7993515828020151e+01 8.1367670739533509e+01 0 1 0
3089 2 -6.2000945316325558e-02 7.7651658178589145e+01 7.7959922013556564e+01 7.8153981667965184e+01 0 0 0
3090 1 5.1933540517785204e-02 7.7821755558583249e+01 7.8798763868362428e+01 7.8799142108026629e+01 0 0 0
3246 2 -7.0792507376537306e-02 8.0338645530631425e+01 7.8060094890471888e+01 8.2175436736164599e+01 0 1 0
3074 2 -6.6507802905612368e-02 7.9559497701762211e+01 7.9232841774307289e+01 7.7077457377906157e+01 0 0 0
4764 1 1.1285567911382327e-01 8.2227941844149754e+01 8.1538504478874728e+01 8.1780524721833928e+01 0 0 0
3249 1 6.0907667919789368e-02 7.9268198418311414e+01 7.7973569876524209e+01 8.0311026170465567e+01 0 1 0
3253 2 -2.4405516715707029e-01 7.7810138504437106e+01 7.9202122047083620e+01 8.3269300207579121e+01 0 1 0
4760 2 -1.3098405598212751e-01 8.1774714132544148e+01 8.1944800728609323e+01 8.3863572317814402e+01 0 0 0
3243 2 -1.2241981516167198e-01 8.1378384963370564e+01 7.7094959386228680e+01 8.1572864841828576e+01 0 1 0
3258 2 1.0101573380142628e-01 8.0125220220536221e+01 7.7642868146884638e+01 8.3550075968136539e+01 0 1 0
3067 1 7.3091004286554712e-02 7.7208658887142064e+01 8.1940003379004096e+01 7.8473324522566472e+01 0 0 0
3254 1 1.4984060616394490e-01 7.8680287576074591e+01 7.9450904212342707e+01 8.3883071458487919e+01 0 1 0
3076 2 -1.6241608484455622e-01 7.8694069447697004e+01 7.7884097617118101e+01 7.7014739916151285e+01 0 0 0
3072 1 6.3302339527212745e-02 7.7618909022814236e+01 8.0296149492149141e+01 7.6762209736478667e+01 0 0 0
3238 2 -1.3228427531202247e-01 8.2309229651161814e+01 7.7221572935929998e+01 7.9088590636075764e+01 0 1 0
4788 3 -1.6488128731282040e-01 8.2749790535821290e+01 8.1748866918801667e+01 7.9114534055525155e+01 0 0 0
3266 1 1.1775635461931913e-01 7.7517009152916700e+01 7.8245296197985510e+01 8.3608032568476062e+01 0 1 0
3239 1 1.0572923322646191e-01 8.2624322187232835e+01 7.7756482163202193e+01 7.8233824371142276e+01 0 1 0
4763 2 -7.9077760886482537e-02 8.2774637831485904e+01 8.1843606833300498e+01 8.2682452024485769e+01 0 0 0
4761 1 9.9758227084813217e-02 8.2334701103168868e+01 8.1894105157115462e+01 8.4795532156384169e+01 0 0 0
5528 2 1.1244216528821846e-01 8.2044675193461913e+01 7.7697780090059155e+01 8.5956432369660874e+01 0 1 0
4792 3 -1.8149162450968159e-01 7.8660088716459924e+01 8.2538809826394186e+01 8.2511392317490248e+01 0 0 0
3252 1 9.0267431529573200e-02 7.7228593669535030e+01 7.9230840605554633e+01 8.1155178944770626e+01 0 1 0
3250 1 8.5883084073375290e-02 7.8414325076929970e+01 7.7083743356992684e+01 8.1497728407414414e+01 0 1 0
3066 2 -1.0776529912567991e-01 7.7756499274991668e+01 8.2585944480527104e+01 7.7774136706254538e+01 0 0 0
3068 1 6.6586332314367377e-02 7.7138196223495100e+01 8.2745728265195368e+01 7.6884094457764476e+01 0 0 0
5529 3 -1.7110130864304729e-01 8.1172112684927669e+01 7.8403530075234826e+01 8.5608255775438948e+01 0 1 0
3078 1 1.3967863997400237e-01 7.9344089116624929e+01 7.7025158944692848e+01 7.7033592156207632e+01 0 0 0
3259 3 -1.9042535680304504e-01 7.9973465057381631e+01 7.7319554111641537e+01 8.4678480167508113e+01 0 1 0
3071 2 -1.2978633905790016e-01 7.8681598708594748e+01 8.0473743255811186e+01 7.6570580633313369e+01 0 0 0
3255 1 1.1114355650056720e-01 7.7004843264244130e+01 7.9885649303352011e+01 8.3500491851284337e+01 0 1 0
3245 1 8.6280408783827672e-02 8.2098503492968788e+01 7.6700063419712365e+01 8.2315772025243632e+01 0 1 0
4791 2 1.2605068218184542e-01 7.9669089559385455e+01 8.2865158145143297e+01 8.3025473240299561e+01 0 0 0
3240 1 8.0414005812694617e-02 8.1255593865254227e+01 7.6992308688783737e+01 7.8816636657960032e+01 0 1 0
3122 2 1.2966157042460266e-01 7.7890766179709971e+01 7.6693412372146966e+01 7.8907382934115830e+01 0 0 0
5407 1 6.4754548148642829e-02 8.7574213817650062e+01 7.6642899000245194e+01 7.7212484962041458e+01 0 1 0
5406 1 7.0648008721920397e-02 8.7723291972568887e+01 7.8287508254547049e+01 7.6644447463388076e+01 0 1 0
4691 1 6.5099893238037415e-02 8.6788989160341586e+01 8.0430901933247966e+01 7.6949934928994963e+01 0 0 0
3260 2 1.0954641097209181e-01 8.3569642573078170e+01 7.8217895225517822e+01 8.1159038745794248e+01 0 1 0
4789 2 1.1345985977595138e-01 8.3674285057539052e+01 8.0682786367222292e+01 8.2842991320164373e+01 0 0 0
4720 3 -1.7446161886298606e-01 8.3570247641257183e+01 8.0819801801358068e+01 7.7750568335858375e+01 0 0 0
4790 3 -1.8540742583888362e-01 8.4418739000179414e+01 7.9767706028294654e+01 8.2971089023070050e+01 0 0 0
3261 3 -1.3360187793548289e-01 8.4608048871765533e+01 7.8433931412576271e+01 8.1662985552796442e+01 0 1 0
5439 1 1.0889205871541685e-01 8.6949432624941707e+01 7.8804837308065942e+01 8.4178310761837778e+01 0 1 0
4719 2 1.0172261406637897e-01 8.4486735918338880e+01 8.1443884493355455e+01 7.7314475020556543e+01 0 0 0
5467 3 -2.0544708635788667e-01 8.7345963383183715e+01 7.9824268285970092e+01 8.0866702426113022e+01 0 1 0
5466 2 1.3241069705873146e-01 8.8149190422111957e+01 7.9461201895765555e+01 8.1649185569826173e+01 0 1 0
4771 1 1.4857891956379990e-01 8.5743018617764520e+01 8.1662192226245082e+01 8.1404623404625454e+01 0 0 0
4776 1 1.0214186361967492e-01 8.7978484617316809e+01 8.1926723284162946e+01 8.2008299554487053e+01 0 0 0
5426 3 -1.9145646853980883e-01 8.7142902376760162e+01 7.8292532731894198e+01 7.9709456536029350e+01 0 1 0
5438 2 -8.6549952980607678e-02 8.7619856892714893e+01 7.9480370581737219e+01 8.4695745438981888e+01 0 1 0
5464 2 1.2093782720917694e-01 8.6957288414937935e+01 8.0803905947421939e+01 8.4647695543141239e+01 0 1 0
5425 2 1.0805350594161500e-01 8.8177996008398125e+01 7.7838034354609135e+01 7.9433602878139737e+01 0 1 0
5465 3 -2.0104697055820797e-01 8.6426890798288852e+01 8.1867286366046883e+01 8.4605690019655142e+01 0 1 0
4692 1 8.1839360816344187e-02 8.6792941757377989e+01 8.1369666280468522e+01 7.8391090517813254e+01 0 0 0
3234 1 1.1005751108958693e-01 8.4734708553509932e+01 7.7135674638122978e+01 7.8981826421023257e+01 0 1 0
4770 2 -1.3930293411147876e-01 8.5696869549818501e+01 8.2632839989528733e+01 8.0883852614536238e+01 0 0 0
4775 2 -1.2442148967416715e-01 8.8042408869292515e+01 8.2852496307502719e+01 8.1437820875716312e+01 0 0 0
4777 1 7.8846716079067000e-02 8.8173380180714773e+01 8.2598352545940884e+01 8.0364114539567339e+01 0 0 0
4772 1 8.3338658097827853e-02 8.6076288199701750e+01 8.2382021776154687e+01 7.9890187808448133e+01 0 0 0
4689 1 7.0961513401279874e-02 8.8880946323042721e+01 8.2169880582944160e+01 7.7671245795859363e+01 0 0 0
1738 3 -2.0224532023562827e-01 8.5139516977529851e+01 8.1939404685226506e+01 8.5863297337619144e+01 0 0 0
4787 2 1.1546333823186920e-01 8.3418071610341585e+01 8.2372231430549434e+01 7.9870964560765614e+01 0 0 0
5435 2 -1.3164437860589367e-01 8.9060642236214434e+01 7.9717682910555624e+01 8.4089118001571777e+01 0 1 0
5538 1 1.4103692293951303e-01 8.4220878381705617e+01 7.7470907295095287e+01 8.4528874943637661e+01 0 1 0
4693 2 -7.0628734812871366e-02 8.5586872502014174e+01 8.2230068938139382e+01 7.6802648369811834e+01 0 0 0
5437 1 7.0490251442880958e-02 8.9391048186018409e+01 8.0731866749089178e+01 8.4029034902240170e+01 0 1 0
4690 2 -1.1007182385185894e-01 8.6799193586202691e+01 8.1460781837992400e+01 7.7336555958609821e+01 0 0 0
5440 2 -1.1478423374420918e-01 8.7766139672648919e+01 7.8961386517585638e+01 8.6214675762589593e+01 0 1 0
5444 1 3.9163787562242439e-02 8.7206428190479130e+01 7.6824364681274830e+01 8.5681273290828841e+01 0 1 0
5445 2 -1.1075532320670969e-01 8.9472958509336209e+01 7.7036786875752952e+01 8.5584273549977610e+01 0 1 0
5433 2 -7.9239259626691580e-02 8.9144403826047821e+01 7.9014035309235851e+01 8.2650835937847376e+01 0 1 0
5434 1 7.0871769308755744e-02 8.8963547536864183e+01 7.7996377961694833e+01 8.2831708085040916e+01 0 1 0
5413 2 -8.1398613203360531e-02 8.9454023908636515e+01 7.7211709180455244e+01 7.9071659210939885e+01 0 1 0
5446 1 6.4695058172927297e-02 8.9433712996650556e+01 7.7280541767878518e+01 8.4537632420219552e+01 0 1 0
5443 2 -6.0576141521463386e-02 8.8026749474847406e+01 7.7405619275769922e+01 8.6220895727440649e+01 0 1 0
4767 1 1.0430659816774759e-01 8.4498079199251066e+01 8.3037406999133097e+01 8.2927845147066961e+01 0 0 0
4688 2 -1.4411747837164240e-01 8.8178762996351338e+01 8.2131303820258836e+01 7.6850385327993038e+01 0 0 0
5525 2 -2.3876208484074923e-01 8.4374964271241254e+01 7.7246732485540974e+01 8.5618524953494017e+01 0 1 0
5526 1 8.6317941386300862e-02 8.4742249883339184e+01 7.8153650221285517e+01 8.6066603034814221e+01 0 1 0
5397 1 7.6544502325182340e-02 8.5312240330477323e+01 7.8290469297032871e+01 7.6681603317007060e+01 0 1 0
5447 1 8.6098743641322584e-02 9.0322453236034633e+01 7.7616342349451060e+01 8.6017191928263216e+01 0 1 0
5417 1 9.4102032718828624e-02 9.1372219218081156e+01 7.6766028013927169e+01 8.0136533586011254e+01 0 1 0
403 2 -1.3228727511730087e-01 9.5821007341321973e+01 7.8232944824392575e+01 8.5511858778473226e+01 0 0 0
410 1 1.0490407648563133e-01 9.4956256783297164e+01 7.8583032859578793e+01 8.2717919725865499e+01 0 0 0
5412 1 1.0256168074356557e-01 8.9843807563659269e+01 7.9004706180780403e+01 7.7745555890830843e+01 0 1 0
5436 1 9.5278388361802385e-02 8.9774831928961405e+01 7.9321087047253741e+01 8.4714075116255742e+01 0 1 0
5410 2 -1.4316864784736891e-01 9.0054974221856810e+01 7.7959260108225493e+01 7.7797002903030346e+01 0 1 0
5419 1 9.3434609482803035e-02 9.0239412662476198e+01 7.9468298912479028e+01 7.9928834886232664e+01 0 1 0
4782 1 6.2962934588134567e-02 8.9976017012936509e+01 8.2743111928808659e+01 8.3794805104486954e+01 0 0 0
5415 2 -1.0956619813921639e-01 9.0475395307319630e+01 7.7325560430523723e+01 8.0327386962851165e+01 0 1 0
419 3 -2.2238834190993523e-01 9.2650823382002542e+01 7.9423921971648682e+01 8.5042145934326612e+01 0 0 0
4216 3 -2.2692756551043469e-01 9.4604672578649570e+01 7.8146582463273177e+01 8.0230923933199037e+01 0 1 1
5418 2 -7.8642565536446343e-02 9.0879147297077893e+01 7.8831719338222399e+01 8.0507946810843180e+01 0 1 0
5422 1 8.8016900101450093e-02 9.0974544687099822e+01 8.0114918456269692e+01 8.2224095621375753e+01 0 1 0
5420 2 -1.3590690161357957e-01 9.0640438918997347e+01 7.9118742995911603e+01 8.2084342842411246e+01 0 1 0
5423 2 1.0063026725240873e-01 9.2244350020067358e+01 7.9092151632857593e+01 7.9994609179869741e+01 0 1 0
5424 3 -1.4267008714898272e-01 9.3326000665878212e+01 7.9333824053567156e+01 7.9573362209132952e+01 0 1 0
418 2 1.2650366567617782e-01 9.3818082157978196e+01 7.9487073325604612e+01 8.4933864609900212e+01 0 0 0
5421 1 8.3677178175953659e-02 9.1256243629324729e+01 7.8474900560815669e+01 8.2681102760805246e+01 0 1 0
413 2 -2.5998392365291295e-01 9.4331731686344000e+01 8.1286202410012422e+01 8.2345926706740471e+01 0 0 0
426 1 1.5319799263700576e-01 9.4286475476365737e+01 8.2105243960650910e+01 8.1718232507558852e+01 0 0 0
414 1 1.2764247776325255e-01 9.3536163886354103e+01 8.0575796964665955e+01 8.2088274392063141e+01 0 0 0
415 1 1.3663629223159732e-01 9.4014669234064499e+01 8.1653720273932493e+01 8.3310450717627631e+01 0 0 0
4215 2 1.3700185165492168e-01 9.5442696106359008e+01 7.8041149621444887e+01 7.9407214180901079e+01 0 1 1
5411 1 1.3539120410553232e-01 9.1154279792959855e+01 7.7820984860464350e+01 7.7914413094491607e+01 0 1 0
406 2 -8.6522726480521520e-02 9.5286165597221043e+01 7.9522179601992320e+01 8.4755641630244298e+01 0 0 0
5416 1 6.7067316647383995e-02 9.0186146239089425e+01 7.6991457802712688e+01 8.1380665392009035e+01 0 1 0
405 1 1.0953421708346070e-01 9.4980600085487680e+01 7.7533237571764417e+01 8.5253497821959400e+01 0 0 0
4784 3 -1.9946155610310268e-01 9.1499222625724954e+01 8.2928145101950207e+01 8.0669746367224761e+01 0 0 0
411 2 -4.5986232152306572e-02 9.5728633621638593e+01 8.0626034349089863e+01 8.2455590581993192e+01 0 0 0
407 1 9.6000296867871315e-02 9.5740492436180745e+01 8.0479419202465536e+01 8.5096892540421635e+01 0 0 0
408 2 -1.2313511970490841e-01 9.5638368419309188e+01 7.9295083869175670e+01 8.3223518077004442e+01 0 0 0
1653 1 9.7930737322529243e-02 9.1134090450990044e+01 8.2956014435660620e+01 7.7079498681299285e+01 0 0 1
1732 3 -2.2283099364122824e-01 9.2032031077477086e+01 8.1010706245187919e+01 8.5811034757238829e+01 0 0 0
1662 3 -1.4321462262007120e-01 9.2618204546878019e+01 8.0653694349640560e+01 7.6688720847933439e+01 0 0 1
4211 1 1.0828814926766933e-01 9.5960400258013806e+01 7.7836369609355515e+01 7.7480482998336626e+01 0 1 1
3049 3 -2.1008636404873324e-01 7.9863407705190554e+01 8.8003542724670808e+01 7.6925481693057677e+01 0 0 0
4684 2 1.3074515869069231e-01 8.1141980714477199e+01 8.9389288910107950e+01 8.5085183971703913e+01 0 0 0
1473 1 1.0078240381015729e-01 8.0186320454174151e+01 8.9285891418997778e+01 7.9813176865204696e+01 0 0 0
4746 1 7.3072453284287076e-02 8.0817183777709332e+01 8.3209924988629055e+01 8.5879505968503494e+01 0 0 0
1489 3 -1.6872262736191845e-01 7.7406252144038433e+01 8.6442522079433772e+01 8.6267401077653616e+01 0 0 0
1484 2 1.2275547053102298e-01 8.0467609832605731e+01 8.8847738968564002e+01 8.1890341125309774e+01 0 0 0
1471 1 1.1568619535112389e-01 7.8300460095276392e+01 8.8113539016541154e+01 7.9530492501330357e+01 0 0 0
4758 2 -7.8814594755947598e-02 8.0913732914414226e+01 8.3289130711851783e+01 8.3681766486037247e+01 0 0 0
4685 3 -2.1362437479248100e-01 8.0774957543793434e+01 8.8372014311941584e+01 8.4635782886944526e+01 0 0 0
1462 2 -6.9453213455250642e-02 7.6893940246029103e+01 8.7910377798425870e+01 8.4131096753472576e+01 0 0 0
1466 1 9.1548329851331295e-02 7.7378285984788604e+01 8.6309801283521807e+01 8.2765000829901268e+01 0 0 0
1488 2 1.1482181121829585e-01 7.7172807501180259e+01 8.7077603139797873e+01 8.5308440401463841e+01 0 0 0
1467 2 -5.9198538267767643e-02 7.7322087451609249e+01 8.8219127864581239e+01 8.1601984163832597e+01 0 0 0
3065 1 1.2833420770588788e-01 7.7338979092716613e+01 8.3915475271667219e+01 7.9493783259728175e+01 0 0 0
4744 1 1.1009414173123661e-01 8.1442178711836235e+01 8.5921142037034485e+01 8.4445380907067914e+01 0 0 0
4759 1 9.2844242080837094e-02 8.1421716296379955e+01 8.3965852925371351e+01 8.2988821726061062e+01 0 0 0
1469 2 -1.5558136323259331e-01 7.8562802565089157e+01 8.8067205095196272e+01 8.0590682731002815e+01 0 0 0
3084 3 -1.4692644955658249e-01 8.0443541831845309e+01 8.4160497201930937e+01 7.9710902406061209e+01 0 0 0
3083 2 1.2570426534406712e-01 7.9357382846192664e+01 8.4067407638891268e+01 7.9243591132658210e+01 0 0 0
3063 1 1.1860790026308729e-01 7.8275289305861961e+01 8.6065605542379828e+01 7.8337872653377076e+01 0 0 0
1464 2 -1.4117389454764626e-01 7.7692495447607499e+01 8.7351339417658465e+01 8.2836611851294450e+01 0 0 0
4757 3 -2.0899364194256237e-01 8.1035304580687054e+01 8.5609528437844190e+01 8.0753943097517421e+01 0 0 0
4756 2 1.1655086408923393e-01 8.2080479297667594e+01 8.6010133124832976e+01 8.0383105326754588e+01 0 0 0
3061 2 -1.4754478551657699e-01 7.7994151277139437e+01 8.5208188398985754e+01 7.7725934956141046e+01 0 0 0
3064 2 -8.4799702432547586e-02 7.8050554972368346e+01 8.3883652511418390e+01 7.8633406262522172e+01 0 0 0
1470 1 1.2586031821267005e-01 7.9011883789072996e+01 8.7107327057665074e+01 8.0727747112047396e+01 0 0 0
1465 1 1.3105963674493831e-01 7.8802421326594001e+01 8.7347376326664659e+01 8.3034664089735926e+01 0 0 0
4745 2 -1.1935001844431468e-01 8.0554526137365940e+01 8.3913883451683162e+01 8.5092859934377458e+01 0 0 0
1485 3 -2.0690534952959322e-01 8.1133800393320826e+01 8.8532682594392710e+01 8.2819767837562082e+01 0 0 0
4743 2 -9.3397138922917053e-02 8.1416089119671867e+01 8.5287755746656501e+01 8.5321209277388590e+01 0 0 0
4747 1 9.9975117154074838e-02 7.9416456038994582e+01 8.4054423872583570e+01 8.5183983282749153e+01 0 0 0
4712 1 1.1701214358015204e-01 8.2998226517391501e+01 8.5387526245273747e+01 7.8030822351795194e+01 0 0 0
1518 3 -1.8396672976804063e-01 7.8365944182967482e+01 8.9011515208640475e+01 7.6898368099417553e+01 0 0 0
1472 2 -7.0756899874492823e-02 7.9603830286946604e+01 8.9250839721197949e+01 8.0777211157763659e+01 0 0 0
1459 2 -1.2651405400510971e-01 7.7503590709655100e+01 8.9384263088530631e+01 8.4464411811899652e+01 0 0 0
1468 1 5.0666677224205495e-02 7.7068351348508259e+01 8.9252426964599394e+01 8.1761444930905981e+01 0 0 0
4740 2 -1.2630948661728850e-01 8.2914859587891229e+01 8.4882102937912890e+01 8.5832784844979471e+01 0 0 0
4711 1 1.1736925952995216e-01 8.2137801068106754e+01 8.6957327932819538e+01 7.8119620655538569e+01 0 0 0
1461 1 1.0741989335133979e-01 7.8442148612963933e+01 8.9320440881222666e+01 8.4995378874452499e+01 0 0 0
3062 1 1.3624794019689354e-01 7.8722768912147401e+01 8.4947768851943891e+01 7.6966082388358373e+01 0 0 0
4694 1 6.5775900560095885e-02 8.5477225511974694e+01 8.3254961899966844e+01 7.7195130995422758e+01 0 0 0
4781 1 1.0362179873482985e-01 8.8357856551790178e+01 8.3547278611739515e+01 8.3915977382126400e+01 0 0 0
4768 2 -6.4096228025560378e-02 8.4199265180117877e+01 8.3156670524114219e+01 8.0820349003060642e+01 0 0 0
4727 1 1.1892487771043064e-01 8.3045202833584867e+01 8.8697567789525593e+01 8.0027156577622932e+01 0 0 0
4754 2 1.5487734650587967e-01 8.3752168319564447e+01 8.9496248761658791e+01 8.2240588563629700e+01 0 0 0
4704 1 6.6182975919018089e-02 8.4347715304345726e+01 8.4368626501361547e+01 7.6820335775679553e+01 0 0 0
4766 1 4.9878353982610590e-02 8.3040023635331167e+01 8.3962838791832354e+01 8.2604938690608549e+01 0 0 0
994 1 1.0732157371082295e-01 8.9429048765150554e+01 8.8998418948582270e+01 7.9684236605040326e+01 0 0 0
4765 2 -1.1633210245400032e-01 8.3585071975711742e+01 8.3074358322683864e+01 8.2337252383169997e+01 0 0 0
4741 1 8.9394603693646393e-02 8.3275784663130509e+01 8.4051045924531451e+01 8.5210034650489604e+01 0 0 0
4710 2 -1.4390430377474642e-01 8.3063705941023940e+01 8.6417861671656269e+01 7.8358867674194798e+01 0 0 0
981 2 -2.6427029744840669e-01 8.8466150769515963e+01 8.8869034056262521e+01 8.0218707961749573e+01 0 0 0
4729 1 1.1317027115680457e-01 8.3208045598040414e+01 8.7454319089798688e+01 8.2468553460015784e+01 0 0 0
983 1 1.5165263992458780e-01 8.7751760997345912e+01 8.8623494410221269e+01 7.9467728831351323e+01 0 0 0
4773 2 -6.9817894154810226e-02 8.6706463717365779e+01 8.3611819588167847e+01 8.1565693478540126e+01 0 0 0
4774 1 6.6403466204812106e-02 8.6539030556421380e+01 8.3913459252238226e+01 8.2602157935322822e+01 0 0 0
4723 2 -7.1968863764675303e-02 8.3398169501305262e+01 8.6488029400987756e+01 7.9912598300180576e+01 0 0 0
4736 1 5.3734269790553971e-02 8.3810547582169747e+01 8.5814696625940627e+01 8.3666409175773239e+01 0 0 0
4725 2 -1.3630687715248949e-01 8.3766780545716244e+01 8.7956362902579855e+01 8.0424387372046255e+01 0 0 0
4753 3 -1.6581221250612518e-01 8.7743318796887351e+01 8.7286483121011898e+01 8.5010000899337854e+01 0 0 0
4769 1 6.1030139656318455e-02 8.4149681349066370e+01 8.4200348997052515e+01 8.0581564476235883e+01 0 0 0
4726 1 1.0557491603949327e-01 8.4723905776173126e+01 8.8235505266962434e+01 7.9956651021572995e+01 0 0 0
4728 2 -8.6695039118908954e-02 8.3984935733323482e+01 8.8038758950516836e+01 8.1965222686795229e+01 0 0 0
4709 1 8.9225669910861921e-02 8.4409059702405102e+01 8.8013376942454883e+01 7.7676527842938683e+01 0 0 0
4724 1 7.5809662275471146e-02 8.4270162043739305e+01 8.5855438564469566e+01 8.0236177230487428e+01 0 0 0
4708 2 -8.2888857831067336e-02 8.4322664452839263e+01 8.6933518822932498e+01 7.7529661878390456e+01 0 0 0
4713 2 1.2450675334897754e-01 8.5501101830797325e+01 8.6190842599198604e+01 7.8042017839218829e+01 0 0 0
4714 3 -2.3507984607632776e-01 8.6449103333525102e+01 8.5597916361663309e+01 7.8364416807219143e+01 0 0 0
4734 1 6.6051055731347008e-02 8.4614823436272474e+01 8.8232413320880184e+01 8.4566476896013739e+01 0 0 0
4735 2 -1.1650774286504197e-01 8.4583378341183050e+01 8.6041858594844086e+01 8.4350208538241020e+01 0 0 0
4785 2 1.1122524884259252e-01 8.6770083839691893e+01 8.4831004947903665e+01 8.0755966394409540e+01 0 0 0
4733 2 -6.7032055816716493e-02 8.5249055632407817e+01 8.7417245694856206e+01 8.4130627093129021e+01 0 0 0
4752 2 1.1830225744390198e-01 8.6622906035252939e+01 8.7342991151601780e+01 8.4615255891677407e+01 0 0 0
4786 3 -2.2855060400931368e-01 8.6827164105790160e+01 8.5857062926987737e+01 8.0168977765689164e+01 0 0 0
4731 1 1.0090930956081602e-01 8.5728843860295370e+01 8.6708618430617278e+01 8.2190314282070446e+01 0 0 0
4730 2 -1.3777708442318423e-01 8.5381885179095164e+01 8.7671828885195765e+01 8.2597890547574380e+01 0 0 0
4737 1 9.1110753952615170e-02 8.5354361529603736e+01 8.5306463718020751e+01 8.4212539715865063e+01 0 0 0
4732 1 9.9238705012597739e-02 8.6120083931870781e+01 8.8419168681327534e+01 8.2476726492509329e+01 0 0 0
4827 3 -2.1151793216206799e-01 8.8743876842236176e+01 8.6896038644527721e+01 8.3509093252710116e+01 0 0 0
982 1 1.3120549910519833e-01 8.8592136527559148e+01 8.8034300419976205e+01 8.0845839208180010e+01 0 0 0
4779 1 9.4263350257381681e-02 8.9000773694656445e+01 8.4793810064589337e+01 8.1591595104406068e+01 0 0 0
4738 2 -7.4051604724691536e-02 8.3871297398260864e+01 8.6125951386924910e+01 8.5772594683321628e+01 0 0 0
1657 1 7.3505953995559939e-02 8.9505058061563830e+01 8.4966670956826292e+01 7.7672765124822845e+01 0 0 1
4778 2 -8.1225655315497594e-02 8.9281950461453619e+01 8.3788992770498453e+01 8.1874779013506981e+01 0 0 0
4826 2 1.2172121122242559e-01 8.9422385049925452e+01 8.5959778452825972e+01 8.3776132537563143e+01 0 0 0
4780 2 -1.1091988264860086e-01 8.9388572599670823e+01 8.3641892248569690e+01 8.3452748556662215e+01 0 0 0
4739 1 7.6300362651445602e-02 8.3401676391882006e+01 8.7043203963699881e+01 8.5916717509936092e+01 0 0 0
4794 1 9.2283578982241779e-02 9.0312765226477353e+01 8.4772130769685674e+01 8.5231107485748581e+01 0 0 0
4815 2 -2.2900046488001635e-01 9.3008198274408514e+01 8.8411386541546221e+01 7.8307098338883250e+01 0 0 0
4808 2 -7.2260974036208639e-02 9.2682826780137063e+01 8.7473828888456723e+01 8.1609784657118851e+01 0 0 0
4810 2 -1.1008323405331807e-01 9.1901818499657509e+01 8.8154149363301840e+01 8.0476499380841119e+01 0 0 0
1660 3 -1.8182171375179101e-01 9.2369627806874433e+01 8.4331001841300591e+01 7.9797679785906567e+01 0 0 1
1703 3 -2.0416325419390363e-01 9.0002056747406840e+01 8.9133973727701317e+01 7.6683923418032933e+01 0 0 1
4805 2 -1.2868615871683689e-01 9.3055270064336440e+01 8.8665431595904039e+01 8.2581740904172577e+01 0 0 0
4809 1 6.5390665227160666e-02 9.2166899922434794e+01 8.6758765668793444e+01 8.2225214143683857e+01 0 0 0
4807 1 6.4689363945962142e-02 9.3889568371423508e+01 8.9196624908000160e+01 8.2080841354926633e+01 0 0 0
4783 2 1.0335963777650473e-01 9.0512340044813186e+01 8.3279870053242206e+01 8.1213404871680098e+01 0 0 0
4799 1 9.1705966494994157e-02 9.3723777957079491e+01 8.5638249951569108e+01 8.3850366974217494e+01 0 0 0
4828 1 9.9579252034406596e-02 9.3997141498914374e+01 8.8445144982900274e+01 7.7813718230117743e+01 0 0 0
4795 2 -1.3016192226575243e-01 9.1777527674332575e+01 8.4740254795945603e+01 8.3692396918882082e+01 0 0 0
4817 1 1.3245203032876515e-01 9.2235015791364560e+01 8.8931460673818364e+01 7.7726757353360952e+01 0 0 0
4797 1 9.8625255172126516e-02 9.1861892082776393e+01 8.4799491408461193e+01 8.2584596568370287e+01 0 0 0
4822 2 1.0807027964603785e-01 9.3743546822882223e+01 8.9151761148722727e+01 8.4941992924411323e+01 0 0 0
1659 2 1.0019186203433862e-01 9.2082543640207774e+01 8.4666357038159973e+01 7.8697299897114675e+01 0 0 1
4824 2 1.3401081394683781e-01 9.2934996579930939e+01 8.5270846933034207e+01 8.5707660962114659e+01 0 0 0
1650 1 1.0304372198397654e-01 9.3861311501638966e+01 8.3554273191932751e+01 7.6680680760923437e+01 0 0 1
4806 1 1.1193377315375388e-01 9.2208299791058721e+01 8.9339331444441711e+01 8.2621027445806874e+01 0 0 0
4821 3 -1.7812562773201615e-01 9.4766586355756118e+01 8.6069123755149619e+01 8.0871667504631020e+01 0 0 0
1658 1 7.2540732791588347e-02 9.0065370897479113e+01 8.6515807972013832e+01 7.8246034173568873e+01 0 0 1
4793 2 -7.8693539964044504e-02 9.0259014761209926e+01 8.4766641178830440e+01 8.4131726382277350e+01 0 0 0
4798 2 -8.6957691572730464e-02 9.2804946721858897e+01 8.5714633643078713e+01 8.4329770369463034e+01 0 0 0
4820 2 1.1096224637023652e-01 9.3847376950225510e+01 8.6720423076224790e+01 8.1212734929036714e+01 0 0 0
1656 2 -1.1933929899658725e-01 9.0224860159308051e+01 8.5747821097280678e+01 7.7472811154437593e+01 0 0 1
4804 1 6.3986153834437551e-02 9.4347737324145072e+01 8.7378554243452811e+01 8.3772850514443292e+01 0 0 0
4801 1 1.0091185785008050e-01 9.1428016403964179e+01 8.7371805852738561e+01 8.3714450872996281e+01 0 0 0
4796 1 9.6993045559108926e-02 9.2065784565007306e+01 8.3723768614314963e+01 8.3863032622261585e+01 0 0 0
4813 2 -5.3679484900574573e-02 9.3083745347380926e+01 8.8925609124381168e+01 7.9741488989965475e+01 0 0 0
4802 1 1.1976096808906483e-01 9.1917515283619025e+01 8.7362136874212965e+01 8.5426168586114628e+01 0 0 0
1654 2 -6.5821230416335960e-02 9.1701544255090440e+01 8.5142149398760964e+01 7.7299755053391323e+01 0 0 1
4811 1 6.4444966929232919e-02 9.1516832205934406e+01 8.7460957165054694e+01 7.9739525606035343e+01 0 0 0
4812 1 6.8796600767963303e-02 9.1089393883072617e+01 8.8772294099007951e+01 8.0832828020933320e+01 0 0 0
4816 1 9.0538026519520198e-02 9.2791491718471846e+01 8.7331870316537675e+01 7.8350883113942032e+01 0 0 0
1655 1 4.9557088934522167e-02 9.2387739135790369e+01 8.5882273380458201e+01 7.6880661747315955e+01 0 0 1
4814 1 9.4154503971620951e-02 9.4135051760444242e+01 8.8654105410231523e+01 8.0142455153331454e+01 0 0 0
4803 2 -5.1867626374451907e-02 9.3467795840659903e+01 8.8104449035582334e+01 8.3978197595396708e+01 0 0 0
4800 2 -1.3574501314994200e-01 9.2281558906129007e+01 8.7200558868860668e+01 8.4396848278464489e+01 0 0 0
2673 2 -7.8367261321437356e-02 7.8146138599920818e+01 8.1343997537179078e+01 8.9536085552392464e+01 0 0 0
2674 1 9.3915660453899263e-02 7.8850546867136501e+01 8.0805054143889620e+01 9.0192587287168337e+01 0 0 0
3827 3 -1.4700315657281460e-01 8.1463174331852827e+01 7.9962806465953790e+01 9.4790754493261417e+01 0 0 0
2692 2 1.2843495557626711e-01 7.7896704866942656e+01 8.0709691425293926e+01 8.8220683474094258e+01 0 0 0
1979 3 -1.3775102421832652e-01 7.8650867977555336e+01 7.8683836315790046e+01 8.6955699368034630e+01 1 1 0
2693 3 -2.0839997465217661e-01 7.7647514487467447e+01 8.0237235139247304e+01 8.7166039880076681e+01 0 0 0
1978 2 1.1067411065057890e-01 7.8150440832950054e+01 7.7854901832126217e+01 8.7642872181210095e+01 1 1 0
2676 1 6.0980477355391138e-02 7.7065310501490998e+01 8.2450145962395510e+01 9.1203523652120793e+01 0 0 0
2684 1 8.6819730683671409e-02 7.7247016677318896e+01 8.1395462882859562e+01 9.3104720786008940e+01 0 0 0
2695 3 -1.5263465721979796e-01 8.1577949133668454e+01 8.1211445357051701e+01 9.0716947527470396e+01 0 0 0
2694 2 1.1186006850579873e-01 8.0757549369527666e+01 8.2044525942748237e+01 9.0562827406530047e+01 0 0 0
1972 1 1.0517282495677779e-01 7.8582728348656246e+01 7.7356778819009619e+01 9.0447444279576914e+01 1 1 0
2675 2 -1.3054885720811116e-01 7.6820495071251827e+01 8.1778548037050967e+01 9.0372350755753558e+01 0 0 0
1970 2 -1.2360467628375610e-01 7.7637236158120572e+01 7.7011324729352538e+01 9.0094192627783940e+01 1 1 0
2672 1 9.1915979384201874e-02 7.9278491127999018e+01 8.2749895648186637e+01 8.8211365854125503e+01 0 0 0
3826 2 9.5835182876450500e-02 8.1050177326256886e+01 8.0384293747555986e+01 9.5798591328898652e+01 0 0 0
2670 2 -1.3540571881354702e-01 7.8785465933132514e+01 8.2748708306149283e+01 8.9158590752278926e+01 0 0 0
454 3 -2.0758187038088519e-01 7.9486430704243631e+01 7.6899192974573353e+01 9.4242657902138660e+01 0 0 0
1973 2 -6.0982538766948681e-02 7.7533614488175317e+01 7.6797749289089140e+01 8.8505556813237149e+01 1 1 0
2689 3 -1.7966722636790719e-01 7.6774235049737001e+01 7.8406251295444193e+01 9.4208591079521597e+01 0 0 0
2679 1 5.4203612549683235e-02 7.6742803874491543e+01 7.9704183260188913e+01 9.1099671574514659e+01 0 0 0
1971 1 5.9060239436338188e-02 7.7005392157909782e+01 7.7862969106245188e+01 9.0310382173504109e+01 1 1 0
2688 2 1.1322372997281840e-01 7.6583128250064021e+01 7.9517193754855995e+01 9.3878712018499442e+01 0 0 0
565 3 -1.5021284680108221e-01 8.3306451009540694e+01 8.0451351590736749e+01 9.4306452335241318e+01 0 0 0
5524 1 5.6372418857249987e-02 8.3220236935436361e+01 7.6876430334280414e+01 8.7398340728036430e+01 0 1 0
1740 3 -1.9983464665453979e-01 8.3100853668033835e+01 8.1911910357599623e+01 8.9854369321750326e+01 0 0 0
5523 2 -5.3481708778392284e-02 8.3088166230711707e+01 7.6801472582467355e+01 8.6362703970203313e+01 0 1 0