#Input file for lammps
 
2650 atoms
3 atom types
 
0.0 163.3 xlo xhi
0.0 163.3 ylo yhi
0.0 163.3 zlo zhi
 
Masses
 
1 12
2 14
3 1.008
 
Atoms
 
      1 1 0      92.5798      88.4244      100.418
      2 1 0      92.4725      89.5876      101.189
      3 1 0      91.5229      90.5768      100.785
      4 2 0      90.7337      90.4653      99.7229
      5 3 0      93.2783      87.6495      100.679
      6 3 0       93.089      89.7346      102.065
      7 3 0      91.4053      91.4994      101.356
      8 1 0      91.8064      87.1389      98.4636
      9 1 0      91.7309      88.2952      99.2688
     10 1 0      90.7744      89.3762      98.9269
     11 2 0      89.9861      89.2436      97.8499
     12 3 0      92.4918      86.3467       98.695
     13 1 0      90.9935       85.921       96.513
     14 1 0      90.9501      87.0591      97.3437
     15 1 0      90.0099      88.1691      97.0445
     16 2 0      89.2074      88.0682      95.9746
     17 3 0       91.668      85.1125       96.718
     18 1 0      90.1343       84.759      94.5485
     19 1 0      90.1242      85.8779      95.4054
     20 1 0       89.201      87.0118      95.1458
     21 2 0      88.3816      86.9499      94.0853
     22 3 0      90.7966      83.9341      94.7258
     23 1 0      89.2239      83.6576      92.5679
     24 1 0      89.2495      84.7553      93.4524
     25 1 0      88.3445      85.9124      93.2333
     26 2 0      87.5085      85.8923      92.1847
     27 3 0      89.8727      82.8163      92.7157
     28 1 0      88.2596      82.6214      90.5712
     29 1 0      88.3234      83.6951      91.4844
     30 1 0       87.439      84.8761      91.3092
     31 2 0      86.5863      84.9004      90.2746
     32 3 0      88.8929      81.7636      90.6873
     33 1 0      87.2372      81.6577      88.5592
     34 1 0      87.3431      82.7032      89.5025
     35 1 0      86.4821      83.9085      89.3752
     36 2 0      85.6126      83.9817      88.3577
     37 3 0      87.8526      80.7829      88.6399
     38 1 0      86.1502      80.7779      86.5326
     39 1 0       86.304      81.7889      87.5082
     40 1 0      85.4698      83.0188      87.4332
     41 2 0      84.5828      83.1474      86.4371
     42 3 0      86.7437      79.8851      86.5722
     43 1 0      84.9941      79.9961      84.4967
     44 1 0      85.1995      80.9664      85.5045
     45 1 0      84.3962      82.2199      85.4858
     46 2 0      83.4914      82.4095      84.5153
     47 3 0      85.5614      79.0857      84.4902
     48 1 0      83.7705      79.3214      82.4605
     49 1 0      84.0266      80.2481      83.4971
     50 1 0      83.2574      81.5228      83.5371
     51 2 0      82.3371      81.7734      82.5948
     52 3 0      84.3103      78.3959      82.4085
     53 1 0      82.4859      78.7533      80.4321
     54 1 0       82.789      79.6368       81.493
     55 1 0      82.0562      80.9293      81.5919
     56 2 0      81.1235       81.237      80.6785
     57 3 0       82.999      77.8162      80.3379
     58 1 0      81.1465      78.2881      78.4157
     59 1 0      81.4938      79.1282      79.4976
     60 1 0      80.7986      80.4353      79.6542
     61 2 0      79.8563      80.7966      78.7707
     62 3 0      81.6329      77.3417      78.2814
     63 1 0      79.7558      77.9236      76.4141
     64 1 0      80.1463       78.719      77.5147
     65 1 0      79.4897      80.0375      77.7279
     66 2 0        78.54      80.4509      76.8757
     67 3 0      80.2147      76.9699      76.2401
     68 1 0      78.3164      77.6598      74.4307
     69 1 0      78.7496      78.4086      75.5479
     70 1 0      78.1327      79.7358      75.8169
     71 2 0      77.1775      80.2004      74.9977
     72 3 0      78.7465      76.7009       74.217
     73 1 0      76.8311      77.4975      72.4694
     74 1 0      77.3064      78.1979       73.601
     75 1 0      76.7304       79.531      73.9251
     76 2 0      75.7717      80.0461      73.1409
     77 3 0      77.2313      76.5352      72.2162
     78 1 0      75.3032      77.4369      70.5346
     79 1 0      75.8195      78.0876      71.6781
     80 1 0      75.2857      79.4238      72.0568
     81 2 0      74.3257      79.9884      71.3094
     82 3 0      75.6724      76.4735      70.2421
     83 1 0      73.7361      77.4783      68.6305
     84 1 0       74.292      78.0781      69.7834
     85 1 0      73.8018      79.4145      70.2162
     86 2 0      72.8424      80.0277      69.5073
     87 3 0      74.0735      76.5157      68.2994
     88 1 0      72.1334      77.6216      66.7617
     89 1 0      72.7276      78.1693      67.9214
     90 1 0       72.282      79.5032      68.4073
     91 2 0      71.3253      80.1638      67.7385
     92 3 0      72.4383      76.6619      66.3927
     93 1 0      70.4988      77.8663      64.9322
     94 1 0      71.1298      78.3611      66.0963
     95 1 0      70.7297      79.6896      66.6343
     96 2 0      69.7779      80.3963      66.0073
     97 3 0      70.7705      76.9117      64.5261
     98 1 0       68.836       78.212      63.1463
     99 1 0      69.5023       78.653      64.3122
    100 1 0      69.1485      79.9732      64.9009
    101 2 0      68.2034      80.7247      64.3172
    102 3 0      69.0742      77.2643      62.7043
    103 1 0      67.8488      79.0441      62.5732
    104 1 0      67.5417      80.3535      63.2111
    105 3 0      67.3142      78.7372      61.6742
    106 3 0      66.7833      81.0094      62.7838
    107 1 0      59.1373      34.8019      100.363
    108 1 0      60.2451       34.997      99.5297
    109 1 0      60.3267      36.2214       98.796
    110 2 0       59.419      37.1885      98.8524
    111 3 0      59.0279      33.8988      100.936
    112 3 0      61.0167      34.2448       99.443
    113 3 0      61.1729      36.4161      98.1343
    114 1 0      57.0187      35.6862      101.257
    115 1 0      58.1513      35.8417       100.43
    116 1 0      58.3218      37.0796      99.6306
    117 2 0       57.393      38.0445       99.702
    118 3 0      56.8781      34.7983      101.843
    119 1 0      54.9312      36.6228      102.102
    120 1 0      56.0769      36.7378      101.289
    121 1 0      56.2941      37.9571      100.469
    122 2 0      55.3842      38.9412      100.518
    123 3 0      54.7625      35.7475      102.699
    124 1 0      52.8556      37.6196      102.906
    125 1 0      54.0146      37.6925      102.107
    126 1 0      54.2738      38.8921      101.271
    127 2 0      53.3877      39.8992      101.291
    128 3 0      52.6577      36.7584      103.514
    129 1 0       50.792      38.6828      103.665
    130 1 0      51.9647      38.7105      102.883
    131 1 0      52.2664       39.889       102.03
    132 2 0      51.4072      40.9188       102.02
    133 3 0      50.5634      37.8374      104.284
    134 1 0      48.7425       39.816      104.376
    135 1 0      49.9284      39.7952      103.612
    136 1 0      50.2757      40.9496      102.743
    137 2 0      49.4463      42.0024      102.701
    138 3 0      48.4812      38.9887      105.007
    139 1 0      46.7105      41.0248      105.034
    140 1 0      47.9092      40.9506      104.291
    141 1 0      48.3054      42.0774      103.405
    142 2 0      47.5101      43.1535      103.328
    143 3 0      46.4135      40.2186      105.676
    144 1 0      44.7015      42.3176      105.629
    145 1 0      45.9121      42.1825      104.912
    146 1 0      46.3609      43.2776       104.01
    147 2 0      45.6059      44.3784      103.893
    148 3 0      44.3637      41.5376      106.284
    149 1 0      42.7255      43.7011      106.153
    150 1 0      43.9454      43.5001      105.467
    151 1 0      44.4497      44.5584      104.549
    152 2 0      43.7407      45.6843      104.387
    153 3 0       42.343      42.9524      106.819
    154 1 0      40.7937      45.1736      106.598
    155 1 0      42.0189      44.9077      105.945
    156 1 0      42.5796      45.9251      105.013
    157 2 0      41.9187      47.0734      104.807
    158 3 0       40.368      44.4579      107.275
    159 1 0      38.9124      46.7269      106.966
    160 1 0      40.1394      46.4009      106.345
    161 1 0      40.7552      47.3742      105.401
    162 2 0      40.1416       48.541      105.154
    163 3 0      38.4476      46.0436       107.65
    164 1 0      37.0834      48.3534      107.259
    165 1 0      38.3094      47.9705      106.669
    166 1 0      38.9782      48.8983      105.716
    167 2 0       38.411      50.0798      105.431
    168 3 0      36.5822      47.7025      107.948
    169 1 0      35.3082      50.0487      107.478
    170 1 0      36.5309      49.6101      106.922
    171 1 0      37.2503      50.4909      105.962
    172 2 0      36.7301      51.6843      105.639
    173 3 0      34.7719      49.4313      108.172
    174 1 0      33.5895      51.8094      107.624
    175 1 0      34.8064      51.3156      107.102
    176 1 0      35.5746       52.148      106.137
    177 2 0      35.1025      53.3509      105.777
    178 3 0      33.0188      51.2273       108.32
    179 1 0      31.9308      53.6322      107.696
    180 1 0      33.1392      53.0839       107.21
    181 1 0      33.9547      53.8661      106.242
    182 2 0      33.5318       55.076      105.846
    183 3 0      31.3266      53.0868      108.394
    184 1 0      30.3358       55.513      107.694
    185 1 0      31.5333      54.9115      107.245
    186 1 0      32.3943      55.6418      106.276
    187 2 0      32.0218      56.8561      105.845
    188 3 0      29.6992      55.0058      108.392
    189 1 0      28.8079      57.4477      107.618
    190 1 0      29.9919      56.7946      107.207
    191 1 0      30.8969      57.4711      106.239
    192 2 0      30.5758      58.6873      105.773
    193 3 0      28.1403      56.9797      108.315
    194 1 0      27.3508      59.4317      107.469
    195 1 0      28.5188      58.7286      107.096
    196 1 0      29.4658        59.35      106.131
    197 2 0      29.1969      60.5654      105.632
    198 3 0      26.6537       59.004      108.163
    199 1 0      25.9677      61.4606      107.246
    200 1 0      27.1173      60.7092      106.912
    201 1 0      28.1044      61.2742      105.952
    202 2 0      27.8885      62.4861       105.42
    203 3 0      25.2426       61.074      107.935
    204 1 0      24.6619      63.5297      106.951
    205 1 0      25.7906      62.7318      106.656
    206 1 0      26.8154      63.2394      105.703
    207 2 0      26.6532      64.4453      105.139
    208 3 0      23.9105      63.1848      107.634
    209 1 0      24.5416      64.7919      106.328
    210 1 0      25.6019      65.2413      105.385
    211 3 0      23.6849      65.4345      106.531
    212 3 0      25.5269      66.2119      104.895
    213 1 0      109.618      125.232       34.829
    214 1 0      110.956      125.614      34.6758
    215 1 0      111.437      126.707      35.4614
    216 2 0      110.697      127.387      36.3291
    217 3 0      109.206      124.417       34.262
    218 3 0      111.607      125.098      33.9841
    219 3 0      112.473      127.039      35.3745
    220 1 0      107.457       125.61      35.9502
    221 1 0      108.811      125.961      35.7645
    222 1 0      109.398      127.083      36.5364
    223 2 0      108.633      127.757      37.4081
    224 3 0      107.014      124.801      35.4011
    225 1 0      105.348      126.039      37.0978
    226 1 0      106.704      126.357      36.8822
    227 1 0       107.34      127.472        37.63
    228 2 0      106.602      128.166      38.5095
    229 3 0      104.877      125.236      36.5643
    230 1 0      103.272      126.523      38.2821
    231 1 0       104.63      126.807      38.0354
    232 1 0      105.308      127.912      38.7595
    233 2 0      104.605      128.631      39.6481
    234 3 0      102.771      125.728      37.7653
    235 1 0       101.23      127.068      39.5071
    236 1 0       102.59      127.315      39.2271
    237 1 0       103.31       128.41      39.9265
    238 2 0      102.646      129.154      40.8232
    239 3 0        100.7      126.281      39.0084
    240 1 0      99.2272      127.678      40.7746
    241 1 0      100.587      127.884      40.4593
    242 1 0      101.352      128.966      41.1313
    243 2 0      100.729      129.736      42.0355
    244 3 0      98.6647        126.9      40.2962
    245 1 0      97.2682      128.357      42.0874
    246 1 0      98.6258      128.519      41.7337
    247 1 0      99.4384      129.586       42.375
    248 2 0      98.8624      130.383       43.286
    249 3 0      96.6713      127.591       41.632
    250 1 0      95.3623      129.115      43.4497
    251 1 0      96.7143      129.225      43.0529
    252 1 0      97.5776      130.274      43.6599
    253 2 0      97.0557      131.101      44.5769
    254 3 0      94.7266      128.364      43.0219
    255 1 0      93.5231      129.959      44.8633
    256 1 0       94.865      130.013      44.4208
    257 1 0      95.7806       131.04      44.9895
    258 2 0      95.3197      131.897      45.9113
    259 3 0      92.8458      129.227      44.4675
    260 1 0       91.763      130.889      46.3243
    261 1 0      93.0905      130.887      45.8377
    262 1 0       94.058      131.889      46.3651
    263 2 0      93.6597      132.775      47.2894
    264 3 0      91.0462      130.178      45.9612
    265 1 0      90.0865        131.9      47.8257
    266 1 0      91.3971      131.846       47.299
    267 1 0      92.4143      132.819      47.7834
    268 2 0      92.0761       133.73      48.7079
    269 3 0       89.335      131.211      47.4939
    270 1 0      88.4935      132.986       49.362
    271 1 0       89.785      132.881      48.7981
    272 1 0      90.8487      133.824       49.239
    273 2 0      90.5687      134.757      50.1614
    274 3 0      87.7104      132.318      49.0608
    275 1 0      86.9842      134.142      50.9299
    276 1 0      88.2542      133.988      50.3301
    277 1 0      89.3614      134.899      50.7273
    278 2 0      89.1394      135.851      51.6456
    279 3 0      86.1712      133.497      50.6598
    280 1 0      85.5607      135.367      52.5266
    281 1 0      86.8065      135.162      51.8919
    282 1 0      87.9547      136.041      52.2448
    283 2 0       87.791       137.01       53.157
    284 3 0      84.7191      134.746      52.2884
    285 1 0      84.2258      136.657      54.1489
    286 1 0      85.4448      136.404      53.4804
    287 1 0      86.6315      137.247      53.7882
    288 2 0      86.5268      138.232      54.6926
    289 3 0      83.3574      136.063      53.9433
    290 1 0      82.9828      138.011      55.7931
    291 1 0      84.1723      137.708      55.0925
    292 1 0      85.3951      138.514      55.3545
    293 2 0      85.3498      139.513      56.2489
    294 3 0       82.089      137.444      55.6209
    295 1 0      81.8341      139.425      57.4558
    296 1 0      82.9917      139.074      56.7246
    297 1 0      84.2482      139.841        56.94
    298 2 0      84.2627      140.851      57.8226
    299 3 0       80.917      138.886      57.3173
    300 1 0      80.7826      140.896       59.133
    301 1 0      81.9059      140.498      58.3729
    302 1 0      83.1934      141.224      58.5413
    303 2 0      83.2678      142.243      59.4101
    304 3 0      79.8442      140.387      59.0286
    305 1 0      79.8304       142.42      60.8209
    306 1 0      80.9174      141.976      60.0337
    307 1 0      82.2332      142.661      60.1548
    308 2 0      82.3676      143.687      61.0078
    309 3 0      78.8728      141.942      60.7507
    310 1 0        78.98      143.994      62.5156
    311 1 0      80.0282      143.506      61.7031
    312 1 0      81.3694      144.147      61.7768
    313 2 0      81.5636      145.178      62.6123
    314 3 0      78.0053      143.548      62.4796
    315 1 0      79.2404      145.083      63.3775
    316 1 0       80.604      145.679      63.4038
    317 3 0      78.4566      145.486      64.0185
    318 3 0      80.8245       146.52      64.0621
    319 1 0      110.173       92.114      95.3744
    320 1 0      110.663      90.8067      95.2754
    321 1 0      112.077      90.6118       95.353
    322 2 0      112.959      91.5911      95.5132
    323 3 0      109.118      92.3151      95.3222
    324 3 0      109.993      89.9684      95.1441
    325 3 0      112.504      89.6095      95.2806
    326 1 0      110.667      94.5116       95.652
    327 1 0      111.119      93.1787      95.5477
    328 1 0       112.57       92.879      95.6172
    329 2 0      113.444      93.8832      95.7794
    330 3 0      109.622      94.7479       95.604
    331 1 0      111.229      96.8688      95.9301
    332 1 0      111.637      95.5239      95.8216
    333 1 0      113.078      95.1713      95.8851
    334 2 0      113.979      96.1518      96.0467
    335 3 0      110.191      97.1368      95.8859
    336 1 0      111.862      99.2072      96.2112
    337 1 0      112.226      97.8501      96.0984
    338 1 0      113.654      97.4502      96.1562
    339 2 0      114.587      98.4011       96.317
    340 3 0      110.833      99.5081      96.1709
    341 1 0      112.574      101.526      96.4958
    342 1 0      112.889      100.157      96.3784
    343 1 0      114.304      99.7091      96.4304
    344 2 0      115.269      100.627      96.5901
    345 3 0      111.555      101.862      96.4597
    346 1 0      113.368      103.823      96.7838
    347 1 0      113.632      102.442      96.6617
    348 1 0       115.03      101.943      96.7073
    349 2 0      116.029      102.824      96.8656
    350 3 0      112.363      104.195      96.7524
    351 1 0      114.253      106.093      97.0754
    352 1 0      114.459      104.702      96.9482
    353 1 0      115.838      104.148      96.9869
    354 2 0      116.871      104.988      97.1433
    355 3 0      113.263      106.505       97.049
    356 1 0       115.24       108.33      97.3705
    357 1 0      115.379       106.93      97.2378
    358 1 0      116.735      106.317       97.269
    359 2 0      117.806      107.108       97.423
    360 3 0      114.269      108.787      97.3501
    361 1 0      116.337      110.521      97.6686
    362 1 0      116.404      109.115      97.5304
    363 1 0      117.731      108.441      97.5533
    364 2 0      118.842      109.176      97.7044
    365 3 0      115.392      111.028       97.655
    366 1 0      117.547      112.653      97.9684
    367 1 0      117.541      111.246      97.8251
    368 1 0      118.835       110.51      97.8394
    369 2 0      119.983      111.186      97.9872
    370 3 0      116.629      113.207      97.9615
    371 1 0      118.861      114.719      98.2688
    372 1 0      118.786      113.315      98.1211
    373 1 0      120.044      112.518      98.1267
    374 2 0      121.224      113.138       98.271
    375 3 0       117.97      115.317      98.2682
    376 1 0      120.271      116.719       98.569
    377 1 0      120.131      115.321      98.4174
    378 1 0       121.35      114.466      98.4145
    379 2 0      122.558       115.03      98.5551
    380 3 0      119.408      117.356      98.5743
    381 1 0      121.772       118.65      98.8686
    382 1 0      121.568       117.26      98.7134
    383 1 0      122.746       116.35       98.702
    384 2 0      123.979      116.859      98.8386
    385 3 0      120.939      119.326      98.8798
    386 1 0      123.361       120.51       99.167
    387 1 0      123.093      119.132      99.0085
    388 1 0      124.227      118.168      98.9887
    389 2 0      125.483      118.621      99.1212
    390 3 0       122.56      121.223      99.1842
    391 1 0      125.036      122.295      99.4636
    392 1 0      124.704      120.931      99.3022
    393 1 0      125.792      119.917      99.2741
    394 2 0      127.068      120.311       99.402
    395 3 0      124.269      123.044      99.4868
    396 1 0      126.792      124.001      99.7579
    397 1 0      126.397      122.654      99.5938
    398 1 0      127.437      121.591      99.5574
    399 2 0       128.73      121.926      99.6805
    400 3 0       126.06      124.785       99.787
    401 1 0      128.626      125.625      100.049
    402 1 0      128.169      124.298      99.8827
    403 1 0      129.158      123.188      99.8381
    404 2 0      130.466      123.463      99.9561
    405 3 0      127.931      126.441      100.084
    406 1 0      130.533      127.162      100.336
    407 1 0      130.015      125.857      100.168
    408 1 0      130.952      124.703      100.116
    409 2 0      132.271      124.917      100.228
    410 3 0      129.877      128.009      100.377
    411 1 0      132.509      128.609       100.62
    412 1 0      131.932       127.33       100.45
    413 1 0      132.814      126.133      100.389
    414 2 0      134.142      126.286      100.496
    415 3 0      131.893      129.486      100.666
    416 1 0       134.55      129.962      100.898
    417 1 0      133.914      128.712      100.727
    418 1 0       134.74      127.476      100.658
    419 2 0      136.074      127.566      100.759
    420 3 0      133.975      130.866       100.95
    421 1 0      135.958          130      100.998
    422 1 0      136.727      128.727      100.922
    423 3 0      136.483      130.946      101.131
    424 3 0      137.814      128.735      100.998
    425 1 0      16.3094      60.4437      105.738
    426 1 0      15.6986      61.1779      106.761
    427 1 0      15.4541      60.5198      108.006
    428 2 0      15.7687      59.2548      108.258
    429 3 0      16.5155      60.8914      104.782
    430 3 0      15.4196      62.2122      106.615
    431 3 0        14.98      61.0538      108.832
    432 1 0      17.2702      58.2993      104.997
    433 1 0       16.653      59.0758          106
    434 1 0      16.3598       58.478      107.326
    435 2 0      16.6859      57.1981      107.559
    436 3 0      17.4901      58.7142      104.032
    437 1 0      18.2062      56.1479       104.33
    438 1 0      17.5888      56.9584      105.304
    439 1 0      17.2743      56.4072      106.647
    440 2 0      17.5873      55.1305      106.913
    441 3 0      18.4386      56.5338      103.357
    442 1 0       19.126      53.9703       103.73
    443 1 0      18.5086      54.8158      104.674
    444 1 0      18.1754      54.3084      106.029
    445 2 0      18.4721      53.0364      106.336
    446 3 0      19.3714      54.3254      102.748
    447 1 0      20.0286      51.7628      103.204
    448 1 0      19.4115      52.6453      104.114
    449 1 0      19.0595      52.1829      105.481
    450 2 0      19.3385      50.9182       105.83
    451 3 0      20.2874      52.0851      102.214
    452 1 0      20.9122      49.5248      102.756
    453 1 0      20.2962       50.446      103.629
    454 1 0      19.9244      50.0328      105.007
    455 2 0      20.1841      48.7774        105.4
    456 3 0      21.1851      49.8115      101.759
    457 1 0      21.7743      47.2558      102.394
    458 1 0      21.1604      48.2183      103.225
    459 1 0      20.7676      47.8587      104.613
    460 2 0      21.0056      46.6157      105.055
    461 3 0      22.0624      47.5027      101.391
    462 1 0      22.6105       44.955      102.131
    463 1 0      22.0004      45.9623      102.912
    464 1 0      21.5854      45.6619      104.309
    465 2 0      21.7982      44.4352      104.805
    466 3 0      22.9156      45.1551      101.122
    467 1 0      23.4145       42.626       101.98
    468 1 0      22.8104      43.6794      102.705
    469 1 0      22.3725       43.443      104.108
    470 2 0      22.5571      42.2369      104.663
    471 3 0      23.7378      42.7735      100.968
    472 1 0      24.1807      40.2787      101.949
    473 1 0      23.5846      41.3742      102.614
    474 1 0      23.1239      41.2052      104.021
    475 2 0      23.2798      40.0227      104.633
    476 3 0      24.5211      40.3736      100.936
    477 1 0      24.9073      37.9224      102.033
    478 1 0      24.3201      39.0547      102.642
    479 1 0      23.8379      38.9539      104.048
    480 2 0       23.966      37.7967      104.714
    481 3 0      25.2627      37.9683      101.022
    482 1 0      25.5944      35.5631      102.228
    483 1 0      25.0171      36.7282      102.782
    484 1 0      24.5148      36.6947      104.183
    485 2 0      24.6162      35.5645      104.898
    486 3 0      25.9635       35.562      101.222
    487 1 0      26.2421      33.2046      102.531
    488 1 0      25.6757      34.3999      103.027
    489 1 0      25.1547      34.4329      104.421
    490 2 0      25.2296      33.3317      105.183
    491 3 0       26.624      33.1568       101.53
    492 1 0      26.8495      30.8508      102.938
    493 1 0      26.2953      32.0742      103.378
    494 1 0      25.7568      32.1731      104.761
    495 2 0       25.805      31.1032      105.569
    496 3 0      27.2436       30.756      101.946
    497 1 0      27.4153      28.5065      103.452
    498 1 0      26.8745      29.7555      103.832
    499 1 0      26.3196      29.9202      105.202
    500 2 0      26.3409      28.8839      106.054
    501 3 0      27.8208      28.3645      102.469
    502 1 0      27.9383      26.1769      104.069
    503 1 0       27.412      27.4489      104.389
    504 1 0      26.8418       27.679      105.744
    505 2 0      26.8361      26.6788      106.638
    506 3 0      28.3545      25.9876      103.099
    507 1 0      28.4173      23.8671      104.789
    508 1 0      27.9066       25.159      105.049
    509 1 0      27.3223      25.4545      106.385
    510 2 0      27.2895      24.4925      107.319
    511 3 0      28.8432      23.6309      103.833
    512 1 0      28.8512      21.5824       105.61
    513 1 0      28.3571      22.8916       105.81
    514 1 0      27.7599      23.2517      107.124
    515 2 0         27.7      22.3302      108.097
    516 3 0      29.2859      21.2999      104.671
    517 1 0      29.2391      19.3282       106.53
    518 1 0      28.7625      20.6516      106.669
    519 1 0      28.1538      21.0756      107.959
    520 2 0      28.0667      20.1968      108.968
    521 3 0      29.6816      18.9999      105.609
    522 1 0        29.58      17.1094      107.547
    523 1 0       29.122      18.4441      107.625
    524 1 0       28.503      18.9309      108.888
    525 2 0      28.3888      18.0968      109.932
    526 3 0      30.0294      16.7364      106.647
    527 1 0      29.4347      16.2742      108.677
    528 1 0      28.8067      16.8224       109.91
    529 3 0      29.7762      15.2394      108.653
    530 3 0      28.6858      16.1937      110.792
    531 1 0      51.7232      136.936      81.2001
    532 1 0      52.8982      137.659      81.4375
    533 1 0       52.792      138.906      82.1276
    534 2 0      51.6496      139.427      82.5596
    535 3 0      51.7479      135.993      80.6853
    536 3 0      53.8582      137.285      81.1091
    537 3 0      53.6822      139.504      82.3344
    538 1 0      49.2756      136.796      81.4451
    539 1 0      50.4839      137.491      81.6633
    540 1 0      50.4724      138.794      82.3713
    541 2 0      49.3073      139.303      82.7996
    542 3 0       49.264      135.852      80.9351
    543 1 0      46.8535      136.722      81.7227
    544 1 0      48.0826      137.383        81.92
    545 1 0      48.1248      138.691      82.6231
    546 2 0      46.9773      139.227      83.0642
    547 3 0      46.8093      135.777      81.2165
    548 1 0      44.4348      136.713      82.0352
    549 1 0      45.6851      137.339      82.2107
    550 1 0      45.7762      138.647      82.9077
    551 2 0       44.651      139.217      83.3644
    552 3 0      44.3565      135.768      81.5334
    553 1 0      42.0187      136.775       82.386
    554 1 0       43.291      137.363      82.5379
    555 1 0      43.4318      138.671      83.2282
    556 2 0      42.3322      139.276      83.7006
    557 3 0      41.9044      135.831      81.8895
    558 1 0      39.6066      136.913      82.7774
    559 1 0      40.9011       137.46      82.9039
    560 1 0      41.0953      138.765      83.5861
    561 2 0      40.0245      139.408      84.0748
    562 3 0      39.4539      135.971      82.2871
    563 1 0      37.2016      137.134      83.2128
    564 1 0      38.5186      137.634      83.3111
    565 1 0      38.7704      138.936      83.9836
    566 2 0      37.7331      139.618      84.4893
    567 3 0      37.0067      136.196      82.7301
    568 1 0      34.8083      137.449      83.6977
    569 1 0      36.1478      137.895      83.7635
    570 1 0       36.462       139.19      84.4245
    571 2 0      35.4646      139.916      84.9485
    572 3 0      34.5647      136.517      83.2247
    573 1 0      32.4364      137.869      84.2367
    574 1 0      33.7966      138.254       84.267
    575 1 0      34.1771       139.54       84.914
    576 2 0      33.2258      140.313      85.4574
    577 3 0      32.1392      136.947       83.776
    578 1 0      30.0985      138.399      84.8304
    579 1 0      31.4748      138.722      84.8253
    580 1 0      31.9232      139.995      85.4561
    581 2 0      31.0207      140.812      86.0175
    582 3 0       29.749      137.488       84.383
    583 1 0      27.8027      139.032      85.4749
    584 1 0      29.1905      139.297      85.4365
    585 1 0       29.706      140.552      86.0493