# LAMMPS data file written by Ovito Basic 3.0.0-dev791
4 atoms
2 atom types
0.0 3.564029932 xlo xhi
0.0 3.564029932 ylo yhi
0.0 3.564029932 zlo zhi

Atoms  # charge

1 1 0.0 0.0 0.0 0.0
2 2 0.0 0.0 1.782014966 1.782014966
3 2 0.0 1.782014966 1.782014966 0.0
4 2 0.0 1.782014966 0.0 1.782014966
