ITEM: TIMESTEP
0
ITEM: NUMBER OF ATOMS
7
ITEM: BOX BOUNDS pp pp pp
0.0000000000000000e+00 2.1724000000000000e+01
0.0000000000000000e+00 2.1724000000000000e+01
0.0000000000000000e+00 2.1724000000000000e+01
ITEM: ATOMS id type x y z 
174 1 7.05315 9.22114 9.47024 
175 1 8.93694 7.35513 9.88029 
301 1 7.29613 7.04721 12.0594 
304 1 9.25102 8.98971 12.0652 
306 1 10.8475 8.09867 13.5992 
331 1 8.16107 10.7191 13.4554 
337 1 10.6873 10.6953 10.9117 
ITEM: TIMESTEP
0
ITEM: NUMBER OF ATOMS
7
ITEM: BOX BOUNDS pp pp pp
0.0000000000000000e+00 2.1724000000000000e+01
0.0000000000000000e+00 2.1724000000000000e+01
0.0000000000000000e+00 2.1724000000000000e+01
ITEM: ATOMS id type x y z 
174 1 6.99135 9.31407 9.52039 
175 1 9.11277 7.20578 9.79458 
301 1 7.1541 7.00024 12.112 
304 1 8.98157 8.82085 11.7757 
306 1 10.7357 8.2273 13.4869 
331 1 8.25479 10.6606 13.3914 
337 1 10.629 10.6448 11.0064 
ITEM: TIMESTEP
0
ITEM: NUMBER OF ATOMS
7
ITEM: BOX BOUNDS pp pp pp
0.0000000000000000e+00 2.1724000000000000e+01
0.0000000000000000e+00 2.1724000000000000e+01
0.0000000000000000e+00 2.1724000000000000e+01
ITEM: ATOMS id type x y z 
174 1 6.92955 9.40699 9.57054 
175 1 9.28859 7.05644 9.70888 
301 1 7.01207 6.95328 12.1645 
304 1 8.71211 8.65198 11.4861 
306 1 10.6239 8.35594 13.3747 
331 1 8.34851 10.602 13.3273 
337 1 10.5707 10.5942 11.1012 
ITEM: TIMESTEP
0
ITEM: NUMBER OF ATOMS
7
ITEM: BOX BOUNDS pp pp pp
0.0000000000000000e+00 2.1724000000000000e+01
0.0000000000000000e+00 2.1724000000000000e+01
0.0000000000000000e+00 2.1724000000000000e+01
ITEM: ATOMS id type x y z 
174 1 6.86775 9.49992 9.62069 
175 1 9.46441 6.90709 9.62317 
301 1 6.87004 6.90631 12.2171 
304 1 8.44266 8.48312 11.1965 
306 1 10.5121 8.48457 13.2624 
331 1 8.44223 10.5435 13.2633 
337 1 10.5124 10.5437 11.1959 
