LAMMPS data file via write_data, version 27 Sep 2016, timestep = 0

512 atoms
1 atom types

0.0000000000000000e+00 2.1724000000000000e+01 xlo xhi
0.0000000000000000e+00 2.1724000000000000e+01 ylo yhi
0.0000000000000000e+00 2.1724000000000000e+01 zlo zhi

Masses

1 28.06

Atoms # atomic

1 1 0.0 0.0000000000000000e+00 0.0000000000000000e+00 0.0000000000000000e+00
2 1 0.0 0.0000000000000000e+00 2.7155000000000000e+00 2.7155000000000000e+00
3 1 0.0 2.7155000000000000e+00 0.0000000000000000e+00 2.7155000000000000e+00
4 1 0.0 2.7155000000000000e+00 2.7155000000000000e+00 0.0000000000000000e+00
5 1 0.0 1.3577500000000000e+00 1.3577500000000000e+00 1.3577500000000000e+00
6 1 0.0 1.3577500000000000e+00 4.0732499999999998e+00 4.0732499999999998e+00
7 1 0.0 4.0732499999999998e+00 1.3577500000000000e+00 4.0732499999999998e+00
8 1 0.0 4.0732499999999998e+00 4.0732499999999998e+00 1.3577500000000000e+00
9 1 0.0 5.4310000000000000e+00 0.0000000000000000e+00 0.0000000000000000e+00
10 1 0.0 5.4310000000000000e+00 2.7155000000000000e+00 2.7155000000000000e+00
11 1 0.0 8.1464999999999996e+00 0.0000000000000000e+00 2.7155000000000000e+00
12 1 0.0 8.1464999999999996e+00 2.7155000000000000e+00 0.0000000000000000e+00
13 1 0.0 6.7887500000000003e+00 1.3577500000000000e+00 1.3577500000000000e+00
14 1 0.0 6.7887500000000003e+00 4.0732499999999998e+00 4.0732499999999998e+00
15 1 0.0 9.5042500000000008e+00 1.3577500000000000e+00 4.0732499999999998e+00
16 1 0.0 9.5042500000000008e+00 4.0732499999999998e+00 1.3577500000000000e+00
17 1 0.0 1.0862000000000000e+01 0.0000000000000000e+00 0.0000000000000000e+00
18 1 0.0 1.0862000000000000e+01 2.7155000000000000e+00 2.7155000000000000e+00
19 1 0.0 1.3577500000000001e+01 0.0000000000000000e+00 2.7155000000000000e+00
20 1 0.0 1.3577500000000001e+01 2.7155000000000000e+00 0.0000000000000000e+00
21 1 0.0 1.2219749999999999e+01 1.3577500000000000e+00 1.3577500000000000e+00
22 1 0.0 1.2219749999999999e+01 4.0732499999999998e+00 4.0732499999999998e+00
23 1 0.0 1.4935250000000000e+01 1.3577500000000000e+00 4.0732499999999998e+00
24 1 0.0 1.4935250000000000e+01 4.0732499999999998e+00 1.3577500000000000e+00
25 1 0.0 1.6292999999999999e+01 0.0000000000000000e+00 0.0000000000000000e+00
26 1 0.0 1.6292999999999999e+01 2.7155000000000000e+00 2.7155000000000000e+00
27 1 0.0 1.9008500000000002e+01 0.0000000000000000e+00 2.7155000000000000e+00
28 1 0.0 1.9008500000000002e+01 2.7155000000000000e+00 0.0000000000000000e+00
29 1 0.0 1.7650749999999999e+01 1.3577500000000000e+00 1.3577500000000000e+00
30 1 0.0 1.7650749999999999e+01 4.0732499999999998e+00 4.0732499999999998e+00
31 1 0.0 2.0366250000000001e+01 1.3577500000000000e+00 4.0732499999999998e+00
32 1 0.0 2.0366250000000001e+01 4.0732499999999998e+00 1.3577500000000000e+00
33 1 0.0 0.0000000000000000e+00 5.4310000000000000e+00 0.0000000000000000e+00
34 1 0.0 0.0000000000000000e+00 8.1464999999999996e+00 2.7155000000000000e+00
35 1 0.0 2.7155000000000000e+00 5.4310000000000000e+00 2.7155000000000000e+00
36 1 0.0 2.7155000000000000e+00 8.1464999999999996e+00 0.0000000000000000e+00
37 1 0.0 1.3577500000000000e+00 6.7887500000000003e+00 1.3577500000000000e+00
38 1 0.0 1.3577500000000000e+00 9.5042500000000008e+00 4.0732499999999998e+00
39 1 0.0 4.0732499999999998e+00 6.7887500000000003e+00 4.0732499999999998e+00
40 1 0.0 4.0732499999999998e+00 9.5042500000000008e+00 1.3577500000000000e+00
41 1 0.0 5.4310000000000000e+00 5.4310000000000000e+00 0.0000000000000000e+00
42 1 0.0 5.4310000000000000e+00 8.1464999999999996e+00 2.7155000000000000e+00
43 1 0.0 8.1464999999999996e+00 5.4310000000000000e+00 2.7155000000000000e+00
44 1 0.0 8.1464999999999996e+00 8.1464999999999996e+00 0.0000000000000000e+00
45 1 0.0 6.7887500000000003e+00 6.7887500000000003e+00 1.3577500000000000e+00
46 1 0.0 6.7887500000000003e+00 9.5042500000000008e+00 4.0732499999999998e+00
47 1 0.0 9.5042500000000008e+00 6.7887500000000003e+00 4.0732499999999998e+00
48 1 0.0 9.5042500000000008e+00 9.5042500000000008e+00 1.3577500000000000e+00
49 1 0.0 1.0862000000000000e+01 5.4310000000000000e+00 0.0000000000000000e+00
50 1 0.0 1.0862000000000000e+01 8.1464999999999996e+00 2.7155000000000000e+00
51 1 0.0 1.3577500000000001e+01 5.4310000000000000e+00 2.7155000000000000e+00
52 1 0.0 1.3577500000000001e+01 8.1464999999999996e+00 0.0000000000000000e+00
53 1 0.0 1.2219749999999999e+01 6.7887500000000003e+00 1.3577500000000000e+00
54 1 0.0 1.2219749999999999e+01 9.5042500000000008e+00 4.0732499999999998e+00
55 1 0.0 1.4935250000000000e+01 6.7887500000000003e+00 4.0732499999999998e+00
56 1 0.0 1.4935250000000000e+01 9.5042500000000008e+00 1.3577500000000000e+00
57 1 0.0 1.6292999999999999e+01 5.4310000000000000e+00 0.0000000000000000e+00
58 1 0.0 1.6292999999999999e+01 8.1464999999999996e+00 2.7155000000000000e+00
59 1 0.0 1.9008500000000002e+01 5.4310000000000000e+00 2.7155000000000000e+00
60 1 0.0 1.9008500000000002e+01 8.1464999999999996e+00 0.0000000000000000e+00
61 1 0.0 1.7650749999999999e+01 6.7887500000000003e+00 1.3577500000000000e+00
62 1 0.0 1.7650749999999999e+01 9.5042500000000008e+00 4.0732499999999998e+00
63 1 0.0 2.0366250000000001e+01 6.7887500000000003e+00 4.0732499999999998e+00
64 1 0.0 2.0366250000000001e+01 9.5042500000000008e+00 1.3577500000000000e+00
65 1 0.0 0.0000000000000000e+00 1.0862000000000000e+01 0.0000000000000000e+00
66 1 0.0 0.0000000000000000e+00 1.3577500000000001e+01 2.7155000000000000e+00
67 1 0.0 2.7155000000000000e+00 1.0862000000000000e+01 2.7155000000000000e+00
68 1 0.0 2.7155000000000000e+00 1.3577500000000001e+01 0.0000000000000000e+00
69 1 0.0 1.3577500000000000e+00 1.2219749999999999e+01 1.3577500000000000e+00
70 1 0.0 1.3577500000000000e+00 1.4935250000000000e+01 4.0732499999999998e+00
71 1 0.0 4.0732499999999998e+00 1.2219749999999999e+01 4.0732499999999998e+00
72 1 0.0 4.0732499999999998e+00 1.4935250000000000e+01 1.3577500000000000e+00
73 1 0.0 5.4310000000000000e+00 1.0862000000000000e+01 0.0000000000000000e+00
74 1 0.0 5.4310000000000000e+00 1.3577500000000001e+01 2.7155000000000000e+00
75 1 0.0 8.1464999999999996e+00 1.0862000000000000e+01 2.7155000000000000e+00
76 1 0.0 8.1464999999999996e+00 1.3577500000000001e+01 0.0000000000000000e+00
77 1 0.0 6.7887500000000003e+00 1.2219749999999999e+01 1.3577500000000000e+00
78 1 0.0 6.7887500000000003e+00 1.4935250000000000e+01 4.0732499999999998e+00
79 1 0.0 9.5042500000000008e+00 1.2219749999999999e+01 4.0732499999999998e+00
80 1 0.0 9.5042500000000008e+00 1.4935250000000000e+01 1.3577500000000000e+00
81 1 0.0 1.0862000000000000e+01 1.0862000000000000e+01 0.0000000000000000e+00
82 1 0.0 1.0862000000000000e+01 1.3577500000000001e+01 2.7155000000000000e+00
83 1 0.0 1.3577500000000001e+01 1.0862000000000000e+01 2.7155000000000000e+00
84 1 0.0 1.3577500000000001e+01 1.3577500000000001e+01 0.0000000000000000e+00
85 1 0.0 1.2219749999999999e+01 1.2219749999999999e+01 1.3577500000000000e+00
86 1 0.0 1.2219749999999999e+01 1.4935250000000000e+01 4.0732499999999998e+00
87 1 0.0 1.4935250000000000e+01 1.2219749999999999e+01 4.0732499999999998e+00
88 1 0.0 1.4935250000000000e+01 1.4935250000000000e+01 1.3577500000000000e+00
89 1 0.0 1.6292999999999999e+01 1.0862000000000000e+01 0.0000000000000000e+00
90 1 0.0 1.6292999999999999e+01 1.3577500000000001e+01 2.7155000000000000e+00
91 1 0.0 1.9008500000000002e+01 1.0862000000000000e+01 2.7155000000000000e+00
92 1 0.0 1.9008500000000002e+01 1.3577500000000001e+01 0.0000000000000000e+00
93 1 0.0 1.7650749999999999e+01 1.2219749999999999e+01 1.3577500000000000e+00
94 1 0.0 1.7650749999999999e+01 1.4935250000000000e+01 4.0732499999999998e+00
95 1 0.0 2.0366250000000001e+01 1.2219749999999999e+01 4.0732499999999998e+00
96 1 0.0 2.0366250000000001e+01 1.4935250000000000e+01 1.3577500000000000e+00
97 1 0.0 0.0000000000000000e+00 1.6292999999999999e+01 0.0000000000000000e+00
98 1 0.0 0.0000000000000000e+00 1.9008500000000002e+01 2.7155000000000000e+00
99 1 0.0 2.7155000000000000e+00 1.6292999999999999e+01 2.7155000000000000e+00
100 1 0.0 2.7155000000000000e+00 1.9008500000000002e+01 0.0000000000000000e+00
101 1 0.0 1.3577500000000000e+00 1.7650749999999999e+01 1.3577500000000000e+00
102 1 0.0 1.3577500000000000e+00 2.0366250000000001e+01 4.0732499999999998e+00
103 1 0.0 4.0732499999999998e+00 1.7650749999999999e+01 4.0732499999999998e+00
104 1 0.0 4.0732499999999998e+00 2.0366250000000001e+01 1.3577500000000000e+00
105 1 0.0 5.4310000000000000e+00 1.6292999999999999e+01 0.0000000000000000e+00
106 1 0.0 5.4310000000000000e+00 1.9008500000000002e+01 2.7155000000000000e+00
107 1 0.0 8.1464999999999996e+00 1.6292999999999999e+01 2.7155000000000000e+00
108 1 0.0 8.1464999999999996e+00 1.9008500000000002e+01 0.0000000000000000e+00
109 1 0.0 6.7887500000000003e+00 1.7650749999999999e+01 1.3577500000000000e+00
110 1 0.0 6.7887500000000003e+00 2.0366250000000001e+01 4.0732499999999998e+00
111 1 0.0 9.5042500000000008e+00 1.7650749999999999e+01 4.0732499999999998e+00
112 1 0.0 9.5042500000000008e+00 2.0366250000000001e+01 1.3577500000000000e+00
113 1 0.0 1.0862000000000000e+01 1.6292999999999999e+01 0.0000000000000000e+00
114 1 0.0 1.0862000000000000e+01 1.9008500000000002e+01 2.7155000000000000e+00
115 1 0.0 1.3577500000000001e+01 1.6292999999999999e+01 2.7155000000000000e+00
116 1 0.0 1.3577500000000001e+01 1.9008500000000002e+01 0.0000000000000000e+00
117 1 0.0 1.2219749999999999e+01 1.7650749999999999e+01 1.3577500000000000e+00
118 1 0.0 1.2219749999999999e+01 2.0366250000000001e+01 4.0732499999999998e+00
119 1 0.0 1.4935250000000000e+01 1.7650749999999999e+01 4.0732499999999998e+00
120 1 0.0 1.4935250000000000e+01 2.0366250000000001e+01 1.3577500000000000e+00
121 1 0.0 1.6292999999999999e+01 1.6292999999999999e+01 0.0000000000000000e+00
122 1 0.0 1.6292999999999999e+01 1.9008500000000002e+01 2.7155000000000000e+00
123 1 0.0 1.9008500000000002e+01 1.6292999999999999e+01 2.7155000000000000e+00
124 1 0.0 1.9008500000000002e+01 1.9008500000000002e+01 0.0000000000000000e+00
125 1 0.0 1.7650749999999999e+01 1.7650749999999999e+01 1.3577500000000000e+00
126 1 0.0 1.7650749999999999e+01 2.0366250000000001e+01 4.0732499999999998e+00
127 1 0.0 2.0366250000000001e+01 1.7650749999999999e+01 4.0732499999999998e+00
128 1 0.0 2.0366250000000001e+01 2.0366250000000001e+01 1.3577500000000000e+00
129 1 0.0 0.0000000000000000e+00 0.0000000000000000e+00 5.4310000000000000e+00
130 1 0.0 0.0000000000000000e+00 2.7155000000000000e+00 8.1464999999999996e+00
131 1 0.0 2.7155000000000000e+00 0.0000000000000000e+00 8.1464999999999996e+00
132 1 0.0 2.7155000000000000e+00 2.7155000000000000e+00 5.4310000000000000e+00
133 1 0.0 1.3577500000000000e+00 1.3577500000000000e+00 6.7887500000000003e+00
134 1 0.0 1.3577500000000000e+00 4.0732499999999998e+00 9.5042500000000008e+00
135 1 0.0 4.0732499999999998e+00 1.3577500000000000e+00 9.5042500000000008e+00
136 1 0.0 4.0732499999999998e+00 4.0732499999999998e+00 6.7887500000000003e+00
137 1 0.0 5.4310000000000000e+00 0.0000000000000000e+00 5.4310000000000000e+00
138 1 0.0 5.4310000000000000e+00 2.7155000000000000e+00 8.1464999999999996e+00
139 1 0.0 8.1464999999999996e+00 0.0000000000000000e+00 8.1464999999999996e+00
140 1 0.0 8.1464999999999996e+00 2.7155000000000000e+00 5.4310000000000000e+00
141 1 0.0 6.7887500000000003e+00 1.3577500000000000e+00 6.7887500000000003e+00
142 1 0.0 6.7887500000000003e+00 4.0732499999999998e+00 9.5042500000000008e+00
143 1 0.0 9.5042500000000008e+00 1.3577500000000000e+00 9.5042500000000008e+00
144 1 0.0 9.5042500000000008e+00 4.0732499999999998e+00 6.7887500000000003e+00
145 1 0.0 1.0862000000000000e+01 0.0000000000000000e+00 5.4310000000000000e+00
146 1 0.0 1.0862000000000000e+01 2.7155000000000000e+00 8.1464999999999996e+00
147 1 0.0 1.3577500000000001e+01 0.0000000000000000e+00 8.1464999999999996e+00
148 1 0.0 1.3577500000000001e+01 2.7155000000000000e+00 5.4310000000000000e+00
149 1 0.0 1.2219749999999999e+01 1.3577500000000000e+00 6.7887500000000003e+00
150 1 0.0 1.2219749999999999e+01 4.0732499999999998e+00 9.5042500000000008e+00
151 1 0.0 1.4935250000000000e+01 1.3577500000000000e+00 9.5042500000000008e+00
152 1 0.0 1.4935250000000000e+01 4.0732499999999998e+00 6.7887500000000003e+00
153 1 0.0 1.6292999999999999e+01 0.0000000000000000e+00 5.4310000000000000e+00
154 1 0.0 1.6292999999999999e+01 2.7155000000000000e+00 8.1464999999999996e+00
155 1 0.0 1.9008500000000002e+01 0.0000000000000000e+00 8.1464999999999996e+00
156 1 0.0 1.9008500000000002e+01 2.7155000000000000e+00 5.4310000000000000e+00
157 1 0.0 1.7650749999999999e+01 1.3577500000000000e+00 6.7887500000000003e+00
158 1 0.0 1.7650749999999999e+01 4.0732499999999998e+00 9.5042500000000008e+00
159 1 0.0 2.0366250000000001e+01 1.3577500000000000e+00 9.5042500000000008e+00
160 1 0.0 2.0366250000000001e+01 4.0732499999999998e+00 6.7887500000000003e+00
161 1 0.0 0.0000000000000000e+00 5.4310000000000000e+00 5.4310000000000000e+00
162 1 0.0 0.0000000000000000e+00 8.1464999999999996e+00 8.1464999999999996e+00
163 1 0.0 2.7155000000000000e+00 5.4310000000000000e+00 8.1464999999999996e+00
164 1 0.0 2.7155000000000000e+00 8.1464999999999996e+00 5.4310000000000000e+00
165 1 0.0 1.3577500000000000e+00 6.7887500000000003e+00 6.7887500000000003e+00
166 1 0.0 1.3577500000000000e+00 9.5042500000000008e+00 9.5042500000000008e+00
167 1 0.0 4.0732499999999998e+00 6.7887500000000003e+00 9.5042500000000008e+00
168 1 0.0 4.0732499999999998e+00 9.5042500000000008e+00 6.7887500000000003e+00
169 1 0.0 5.4310000000000000e+00 5.4310000000000000e+00 5.4310000000000000e+00
170 1 0.0 5.4310000000000000e+00 8.1464999999999996e+00 8.1464999999999996e+00
171 1 0.0 8.1464999999999996e+00 5.4310000000000000e+00 8.1464999999999996e+00
172 1 0.0 8.1464999999999996e+00 8.1464999999999996e+00 5.4310000000000000e+00
173 1 0.0 6.7887500000000003e+00 6.7887500000000003e+00 6.7887500000000003e+00
174 1 0.0 6.7887500000000003e+00 9.5042500000000008e+00 9.5042500000000008e+00
175 1 0.0 9.5042500000000008e+00 6.7887500000000003e+00 9.5042500000000008e+00
176 1 0.0 9.5042500000000008e+00 9.5042500000000008e+00 6.7887500000000003e+00
177 1 0.0 1.0862000000000000e+01 5.4310000000000000e+00 5.4310000000000000e+00
178 1 0.0 1.0862000000000000e+01 8.1464999999999996e+00 8.1464999999999996e+00
179 1 0.0 1.3577500000000001e+01 5.4310000000000000e+00 8.1464999999999996e+00
180 1 0.0 1.3577500000000001e+01 8.1464999999999996e+00 5.4310000000000000e+00
181 1 0.0 1.2219749999999999e+01 6.7887500000000003e+00 6.7887500000000003e+00
182 1 0.0 1.2219749999999999e+01 9.5042500000000008e+00 9.5042500000000008e+00
183 1 0.0 1.4935250000000000e+01 6.7887500000000003e+00 9.5042500000000008e+00
184 1 0.0 1.4935250000000000e+01 9.5042500000000008e+00 6.7887500000000003e+00
185 1 0.0 1.6292999999999999e+01 5.4310000000000000e+00 5.4310000000000000e+00
186 1 0.0 1.6292999999999999e+01 8.1464999999999996e+00 8.1464999999999996e+00
187 1 0.0 1.9008500000000002e+01 5.4310000000000000e+00 8.1464999999999996e+00
188 1 0.0 1.9008500000000002e+01 8.1464999999999996e+00 5.4310000000000000e+00
189 1 0.0 1.7650749999999999e+01 6.7887500000000003e+00 6.7887500000000003e+00
190 1 0.0 1.7650749999999999e+01 9.5042500000000008e+00 9.5042500000000008e+00
191 1 0.0 2.0366250000000001e+01 6.7887500000000003e+00 9.5042500000000008e+00
192 1 0.0 2.0366250000000001e+01 9.5042500000000008e+00 6.7887500000000003e+00
193 1 0.0 0.0000000000000000e+00 1.0862000000000000e+01 5.4310000000000000e+00
194 1 0.0 0.0000000000000000e+00 1.3577500000000001e+01 8.1464999999999996e+00
195 1 0.0 2.7155000000000000e+00 1.0862000000000000e+01 8.1464999999999996e+00
196 1 0.0 2.7155000000000000e+00 1.3577500000000001e+01 5.4310000000000000e+00
197 1 0.0 1.3577500000000000e+00 1.2219749999999999e+01 6.7887500000000003e+00
198 1 0.0 1.3577500000000000e+00 1.4935250000000000e+01 9.5042500000000008e+00
199 1 0.0 4.0732499999999998e+00 1.2219749999999999e+01 9.5042500000000008e+00
200 1 0.0 4.0732499999999998e+00 1.4935250000000000e+01 6.7887500000000003e+00
201 1 0.0 5.4310000000000000e+00 1.0862000000000000e+01 5.4310000000000000e+00
202 1 0.0 5.4310000000000000e+00 1.3577500000000001e+01 8.1464999999999996e+00
203 1 0.0 8.1464999999999996e+00 1.0862000000000000e+01 8.1464999999999996e+00
204 1 0.0 8.1464999999999996e+00 1.3577500000000001e+01 5.4310000000000000e+00
205 1 0.0 6.7887500000000003e+00 1.2219749999999999e+01 6.7887500000000003e+00
206 1 0.0 6.7887500000000003e+00 1.4935250000000000e+01 9.5042500000000008e+00
207 1 0.0 9.5042500000000008e+00 1.2219749999999999e+01 9.5042500000000008e+00
208 1 0.0 9.5042500000000008e+00 1.4935250000000000e+01 6.7887500000000003e+00
209 1 0.0 1.0862000000000000e+01 1.0862000000000000e+01 5.4310000000000000e+00
210 1 0.0 1.0862000000000000e+01 1.3577500000000001e+01 8.1464999999999996e+00
211 1 0.0 1.3577500000000001e+01 1.0862000000000000e+01 8.1464999999999996e+00
212 1 0.0 1.3577500000000001e+01 1.3577500000000001e+01 5.4310000000000000e+00
213 1 0.0 1.2219749999999999e+01 1.2219749999999999e+01 6.7887500000000003e+00
214 1 0.0 1.2219749999999999e+01 1.4935250000000000e+01 9.5042500000000008e+00
215 1 0.0 1.4935250000000000e+01 1.2219749999999999e+01 9.5042500000000008e+00
216 1 0.0 1.4935250000000000e+01 1.4935250000000000e+01 6.7887500000000003e+00
217 1 0.0 1.6292999999999999e+01 1.0862000000000000e+01 5.4310000000000000e+00
218 1 0.0 1.6292999999999999e+01 1.3577500000000001e+01 8.1464999999999996e+00
219 1 0.0 1.9008500000000002e+01 1.0862000000000000e+01 8.1464999999999996e+00
220 1 0.0 1.9008500000000002e+01 1.3577500000000001e+01 5.4310000000000000e+00
221 1 0.0 1.7650749999999999e+01 1.2219749999999999e+01 6.7887500000000003e+00
222 1 0.0 1.7650749999999999e+01 1.4935250000000000e+01 9.5042500000000008e+00
223 1 0.0 2.0366250000000001e+01 1.2219749999999999e+01 9.5042500000000008e+00
224 1 0.0 2.0366250000000001e+01 1.4935250000000000e+01 6.7887500000000003e+00
225 1 0.0 0.0000000000000000e+00 1.6292999999999999e+01 5.4310000000000000e+00
226 1 0.0 0.0000000000000000e+00 1.9008500000000002e+01 8.1464999999999996e+00
227 1 0.0 2.7155000000000000e+00 1.6292999999999999e+01 8.1464999999999996e+00
228 1 0.0 2.7155000000000000e+00 1.9008500000000002e+01 5.4310000000000000e+00
229 1 0.0 1.3577500000000000e+00 1.7650749999999999e+01 6.7887500000000003e+00
230 1 0.0 1.3577500000000000e+00 2.0366250000000001e+01 9.5042500000000008e+00
231 1 0.0 4.0732499999999998e+00 1.7650749999999999e+01 9.5042500000000008e+00
232 1 0.0 4.0732499999999998e+00 2.0366250000000001e+01 6.7887500000000003e+00
233 1 0.0 5.4310000000000000e+00 1.6292999999999999e+01 5.4310000000000000e+00
234 1 0.0 5.4310000000000000e+00 1.9008500000000002e+01 8.1464999999999996e+00
235 1 0.0 8.1464999999999996e+00 1.6292999999999999e+01 8.1464999999999996e+00
236 1 0.0 8.1464999999999996e+00 1.9008500000000002e+01 5.4310000000000000e+00
237 1 0.0 6.7887500000000003e+00 1.7650749999999999e+01 6.7887500000000003e+00
238 1 0.0 6.7887500000000003e+00 2.0366250000000001e+01 9.5042500000000008e+00
239 1 0.0 9.5042500000000008e+00 1.7650749999999999e+01 9.5042500000000008e+00
240 1 0.0 9.5042500000000008e+00 2.0366250000000001e+01 6.7887500000000003e+00
241 1 0.0 1.0862000000000000e+01 1.6292999999999999e+01 5.4310000000000000e+00
242 1 0.0 1.0862000000000000e+01 1.9008500000000002e+01 8.1464999999999996e+00
243 1 0.0 1.3577500000000001e+01 1.6292999999999999e+01 8.1464999999999996e+00
244 1 0.0 1.3577500000000001e+01 1.9008500000000002e+01 5.4310000000000000e+00
245 1 0.0 1.2219749999999999e+01 1.7650749999999999e+01 6.7887500000000003e+00
246 1 0.0 1.2219749999999999e+01 2.0366250000000001e+01 9.5042500000000008e+00
247 1 0.0 1.4935250000000000e+01 1.7650749999999999e+01 9.5042500000000008e+00
248 1 0.0 1.4935250000000000e+01 2.0366250000000001e+01 6.7887500000000003e+00
249 1 0.0 1.6292999999999999e+01 1.6292999999999999e+01 5.4310000000000000e+00
250 1 0.0 1.6292999999999999e+01 1.9008500000000002e+01 8.1464999999999996e+00
251 1 0.0 1.9008500000000002e+01 1.6292999999999999e+01 8.1464999999999996e+00
252 1 0.0 1.9008500000000002e+01 1.9008500000000002e+01 5.4310000000000000e+00
253 1 0.0 1.7650749999999999e+01 1.7650749999999999e+01 6.7887500000000003e+00
254 1 0.0 1.7650749999999999e+01 2.0366250000000001e+01 9.5042500000000008e+00
255 1 0.0 2.0366250000000001e+01 1.7650749999999999e+01 9.5042500000000008e+00
256 1 0.0 2.0366250000000001e+01 2.0366250000000001e+01 6.7887500000000003e+00
257 1 0.0 0.0000000000000000e+00 0.0000000000000000e+00 1.0862000000000000e+01
258 1 0.0 0.0000000000000000e+00 2.7155000000000000e+00 1.3577500000000001e+01
259 1 0.0 2.7155000000000000e+00 0.0000000000000000e+00 1.3577500000000001e+01
260 1 0.0 2.7155000000000000e+00 2.7155000000000000e+00 1.0862000000000000e+01
261 1 0.0 1.3577500000000000e+00 1.3577500000000000e+00 1.2219749999999999e+01
262 1 0.0 1.3577500000000000e+00 4.0732499999999998e+00 1.4935250000000000e+01
263 1 0.0 4.0732499999999998e+00 1.3577500000000000e+00 1.4935250000000000e+01
264 1 0.0 4.0732499999999998e+00 4.0732499999999998e+00 1.2219749999999999e+01
265 1 0.0 5.4310000000000000e+00 0.0000000000000000e+00 1.0862000000000000e+01
266 1 0.0 5.4310000000000000e+00 2.7155000000000000e+00 1.3577500000000001e+01
267 1 0.0 8.1464999999999996e+00 0.0000000000000000e+00 1.3577500000000001e+01
268 1 0.0 8.1464999999999996e+00 2.7155000000000000e+00 1.0862000000000000e+01
269 1 0.0 6.7887500000000003e+00 1.3577500000000000e+00 1.2219749999999999e+01
270 1 0.0 6.7887500000000003e+00 4.0732499999999998e+00 1.4935250000000000e+01
271 1 0.0 9.5042500000000008e+00 1.3577500000000000e+00 1.4935250000000000e+01
272 1 0.0 9.5042500000000008e+00 4.0732499999999998e+00 1.2219749999999999e+01
273 1 0.0 1.0862000000000000e+01 0.0000000000000000e+00 1.0862000000000000e+01
274 1 0.0 1.0862000000000000e+01 2.7155000000000000e+00 1.3577500000000001e+01
275 1 0.0 1.3577500000000001e+01 0.0000000000000000e+00 1.3577500000000001e+01
276 1 0.0 1.3577500000000001e+01 2.7155000000000000e+00 1.0862000000000000e+01
277 1 0.0 1.2219749999999999e+01 1.3577500000000000e+00 1.2219749999999999e+01
278 1 0.0 1.2219749999999999e+01 4.0732499999999998e+00 1.4935250000000000e+01
279 1 0.0 1.4935250000000000e+01 1.3577500000000000e+00 1.4935250000000000e+01
280 1 0.0 1.4935250000000000e+01 4.0732499999999998e+00 1.2219749999999999e+01
281 1 0.0 1.6292999999999999e+01 0.0000000000000000e+00 1.0862000000000000e+01
282 1 0.0 1.6292999999999999e+01 2.7155000000000000e+00 1.3577500000000001e+01
283 1 0.0 1.9008500000000002e+01 0.0000000000000000e+00 1.3577500000000001e+01
284 1 0.0 1.9008500000000002e+01 2.7155000000000000e+00 1.0862000000000000e+01
285 1 0.0 1.7650749999999999e+01 1.3577500000000000e+00 1.2219749999999999e+01
286 1 0.0 1.7650749999999999e+01 4.0732499999999998e+00 1.4935250000000000e+01
287 1 0.0 2.0366250000000001e+01 1.3577500000000000e+00 1.4935250000000000e+01
288 1 0.0 2.0366250000000001e+01 4.0732499999999998e+00 1.2219749999999999e+01
289 1 0.0 0.0000000000000000e+00 5.4310000000000000e+00 1.0862000000000000e+01
290 1 0.0 0.0000000000000000e+00 8.1464999999999996e+00 1.3577500000000001e+01
291 1 0.0 2.7155000000000000e+00 5.4310000000000000e+00 1.3577500000000001e+01
292 1 0.0 2.7155000000000000e+00 8.1464999999999996e+00 1.0862000000000000e+01
293 1 0.0 1.3577500000000000e+00 6.7887500000000003e+00 1.2219749999999999e+01
294 1 0.0 1.3577500000000000e+00 9.5042500000000008e+00 1.4935250000000000e+01
295 1 0.0 4.0732499999999998e+00 6.7887500000000003e+00 1.4935250000000000e+01
296 1 0.0 4.0732499999999998e+00 9.5042500000000008e+00 1.2219749999999999e+01
297 1 0.0 5.4310000000000000e+00 5.4310000000000000e+00 1.0862000000000000e+01
298 1 0.0 5.4310000000000000e+00 8.1464999999999996e+00 1.3577500000000001e+01
299 1 0.0 8.1464999999999996e+00 5.4310000000000000e+00 1.3577500000000001e+01
300 1 0.0 8.1464999999999996e+00 8.1464999999999996e+00 1.0862000000000000e+01
301 1 0.0 6.7887500000000003e+00 6.7887500000000003e+00 1.2219749999999999e+01
302 1 0.0 6.7887500000000003e+00 9.5042500000000008e+00 1.4935250000000000e+01
303 1 0.0 9.5042500000000008e+00 6.7887500000000003e+00 1.4935250000000000e+01
304 1 0.0 9.5042500000000008e+00 9.5042500000000008e+00 1.2219749999999999e+01
305 1 0.0 1.0862000000000000e+01 5.4310000000000000e+00 1.0862000000000000e+01
306 1 0.0 1.0862000000000000e+01 8.1464999999999996e+00 1.3577500000000001e+01
307 1 0.0 1.3577500000000001e+01 5.4310000000000000e+00 1.3577500000000001e+01
308 1 0.0 1.3577500000000001e+01 8.1464999999999996e+00 1.0862000000000000e+01
309 1 0.0 1.2219749999999999e+01 6.7887500000000003e+00 1.2219749999999999e+01
310 1 0.0 1.2219749999999999e+01 9.5042500000000008e+00 1.4935250000000000e+01
311 1 0.0 1.4935250000000000e+01 6.7887500000000003e+00 1.4935250000000000e+01
312 1 0.0 1.4935250000000000e+01 9.5042500000000008e+00 1.2219749999999999e+01
313 1 0.0 1.6292999999999999e+01 5.4310000000000000e+00 1.0862000000000000e+01
314 1 0.0 1.6292999999999999e+01 8.1464999999999996e+00 1.3577500000000001e+01
315 1 0.0 1.9008500000000002e+01 5.4310000000000000e+00 1.3577500000000001e+01
316 1 0.0 1.9008500000000002e+01 8.1464999999999996e+00 1.0862000000000000e+01
317 1 0.0 1.7650749999999999e+01 6.7887500000000003e+00 1.2219749999999999e+01
318 1 0.0 1.7650749999999999e+01 9.5042500000000008e+00 1.4935250000000000e+01
319 1 0.0 2.0366250000000001e+01 6.7887500000000003e+00 1.4935250000000000e+01
320 1 0.0 2.0366250000000001e+01 9.5042500000000008e+00 1.2219749999999999e+01
321 1 0.0 0.0000000000000000e+00 1.0862000000000000e+01 1.0862000000000000e+01
322 1 0.0 0.0000000000000000e+00 1.3577500000000001e+01 1.3577500000000001e+01
323 1 0.0 2.7155000000000000e+00 1.0862000000000000e+01 1.3577500000000001e+01
324 1 0.0 2.7155000000000000e+00 1.3577500000000001e+01 1.0862000000000000e+01
325 1 0.0 1.3577500000000000e+00 1.2219749999999999e+01 1.2219749999999999e+01
326 1 0.0 1.3577500000000000e+00 1.4935250000000000e+01 1.4935250000000000e+01
327 1 0.0 4.0732499999999998e+00 1.2219749999999999e+01 1.4935250000000000e+01
328 1 0.0 4.0732499999999998e+00 1.4935250000000000e+01 1.2219749999999999e+01
329 1 0.0 5.4310000000000000e+00 1.0862000000000000e+01 1.0862000000000000e+01
330 1 0.0 5.4310000000000000e+00 1.3577500000000001e+01 1.3577500000000001e+01
331 1 0.0 8.1464999999999996e+00 1.0862000000000000e+01 1.3577500000000001e+01
332 1 0.0 8.1464999999999996e+00 1.3577500000000001e+01 1.0862000000000000e+01
333 1 0.0 6.7887500000000003e+00 1.2219749999999999e+01 1.2219749999999999e+01
334 1 0.0 6.7887500000000003e+00 1.4935250000000000e+01 1.4935250000000000e+01
335 1 0.0 9.5042500000000008e+00 1.2219749999999999e+01 1.4935250000000000e+01
336 1 0.0 9.5042500000000008e+00 1.4935250000000000e+01 1.2219749999999999e+01
337 1 0.0 1.0862000000000000e+01 1.0862000000000000e+01 1.0862000000000000e+01
338 1 0.0 1.0862000000000000e+01 1.3577500000000001e+01 1.3577500000000001e+01
339 1 0.0 1.3577500000000001e+01 1.0862000000000000e+01 1.3577500000000001e+01
340 1 0.0 1.3577500000000001e+01 1.3577500000000001e+01 1.0862000000000000e+01
341 1 0.0 1.2219749999999999e+01 1.2219749999999999e+01 1.2219749999999999e+01
342 1 0.0 1.2219749999999999e+01 1.4935250000000000e+01 1.4935250000000000e+01
343 1 0.0 1.4935250000000000e+01 1.2219749999999999e+01 1.4935250000000000e+01
344 1 0.0 1.4935250000000000e+01 1.4935250000000000e+01 1.2219749999999999e+01
345 1 0.0 1.6292999999999999e+01 1.0862000000000000e+01 1.0862000000000000e+01
346 1 0.0 1.6292999999999999e+01 1.3577500000000001e+01 1.3577500000000001e+01
347 1 0.0 1.9008500000000002e+01 1.0862000000000000e+01 1.3577500000000001e+01
348 1 0.0 1.9008500000000002e+01 1.3577500000000001e+01 1.0862000000000000e+01
349 1 0.0 1.7650749999999999e+01 1.2219749999999999e+01 1.2219749999999999e+01
350 1 0.0 1.7650749999999999e+01 1.4935250000000000e+01 1.4935250000000000e+01
351 1 0.0 2.0366250000000001e+01 1.2219749999999999e+01 1.4935250000000000e+01
352 1 0.0 2.0366250000000001e+01 1.4935250000000000e+01 1.2219749999999999e+01
353 1 0.0 0.0000000000000000e+00 1.6292999999999999e+01 1.0862000000000000e+01
354 1 0.0 0.0000000000000000e+00 1.9008500000000002e+01 1.3577500000000001e+01
355 1 0.0 2.7155000000000000e+00 1.6292999999999999e+01 1.3577500000000001e+01
356 1 0.0 2.7155000000000000e+00 1.9008500000000002e+01 1.0862000000000000e+01
357 1 0.0 1.3577500000000000e+00 1.7650749999999999e+01 1.2219749999999999e+01
358 1 0.0 1.3577500000000000e+00 2.0366250000000001e+01 1.4935250000000000e+01
359 1 0.0 4.0732499999999998e+00 1.7650749999999999e+01 1.4935250000000000e+01
360 1 0.0 4.0732499999999998e+00 2.0366250000000001e+01 1.2219749999999999e+01
361 1 0.0 5.4310000000000000e+00 1.6292999999999999e+01 1.0862000000000000e+01
362 1 0.0 5.4310000000000000e+00 1.9008500000000002e+01 1.3577500000000001e+01
363 1 0.0 8.1464999999999996e+00 1.6292999999999999e+01 1.3577500000000001e+01
364 1 0.0 8.1464999999999996e+00 1.9008500000000002e+01 1.0862000000000000e+01
365 1 0.0 6.7887500000000003e+00 1.7650749999999999e+01 1.2219749999999999e+01
366 1 0.0 6.7887500000000003e+00 2.0366250000000001e+01 1.4935250000000000e+01
367 1 0.0 9.5042500000000008e+00 1.7650749999999999e+01 1.4935250000000000e+01
368 1 0.0 9.5042500000000008e+00 2.0366250000000001e+01 1.2219749999999999e+01
369 1 0.0 1.0862000000000000e+01 1.6292999999999999e+01 1.0862000000000000e+01
370 1 0.0 1.0862000000000000e+01 1.9008500000000002e+01 1.3577500000000001e+01
371 1 0.0 1.3577500000000001e+01 1.6292999999999999e+01 1.3577500000000001e+01
372 1 0.0 1.3577500000000001e+01 1.9008500000000002e+01 1.0862000000000000e+01
373 1 0.0 1.2219749999999999e+01 1.7650749999999999e+01 1.2219749999999999e+01
374 1 0.0 1.2219749999999999e+01 2.0366250000000001e+01 1.4935250000000000e+01
375 1 0.0 1.4935250000000000e+01 1.7650749999999999e+01 1.4935250000000000e+01
376 1 0.0 1.4935250000000000e+01 2.0366250000000001e+01 1.2219749999999999e+01
377 1 0.0 1.6292999999999999e+01 1.6292999999999999e+01 1.0862000000000000e+01