# LAMMPS data file written by OVITO Basic 3.8.4

3853 atoms
6 atom types

-13.81485 13.81485 xlo xhi
-15.0983 15.0983 ylo yhi
-27.44245 27.44245 zlo zhi

Masses

1 12.0107  # C
2 15.9994  # O
3 1.00794  # H
4 14.0067  # N
5 32.065  # S
6 39.0983  # K

Atoms  # full

4 1 1 2.41832e-04 -13.8125557319 -10.8196833528 -25.330188158
25 1 1 -0.00150634 -11.3003262624 -10.8213441658 -25.3397051997
46 1 1 0.00678175 -8.7675945525 -10.8157275982 -25.3451772242
253 1 1 6.50332e-04 -12.5710465581 -12.9815485366 -25.4061104402
256 1 1 0.00311876 -12.5664130574 -8.6711348696 -25.2682834793
274 1 1 -0.00181735 -10.0412408334 -12.9571376052 -25.3896339932
277 1 1 0.00568606 -10.0614105144 -8.652533764 -25.2825480648
295 1 1 -0.00149652 -7.5482130024 -12.968231836 -25.4632346441
298 1 1 0.00438747 -7.540421427 -8.674275316 -25.3895406889
466 1 1 -7.32851e-04 -13.7809588574 -10.6975683024 -21.414990282
484 1 1 6.61959e-04 -11.3224438372 -15.0712515767 -21.4532999422
487 1 1 -8.89885e-05 -11.2862019598 -10.7695871934 -21.4669662823
508 1 1 4.01151e-04 -8.7786188028 -10.7708856472 -21.5913903506
715 1 1 6.3081e-04 -12.5697700659 -12.8796803065 -21.4149353971
718 1 1 -3.26211e-04 -12.5079209825 -8.5665338472 -21.4680090954
736 1 1 0.00110538 -10.0286140605 -12.9334181759 -21.4680090954
739 1 1 8.46862e-04 -10.0079470449 -8.6112550118 -21.5337063207
757 1 1 0.00201901 -7.5287340639 -12.9361449288 -21.4952320058
760 1 1 0.00117436 -7.5221581953 -8.6146974242 -21.4780530321
946 1 1 -0.00192071 -11.3075818216 -13.6853708894 -25.3896943666
949 1 1 0.00170686 -11.3059544323 -9.394766192 -25.2507312883
967 1 1 -9.60202e-04 -8.7881510493 -13.6831423803 -25.4319776936
970 1 1 0.00765934 -8.8105311063 -9.373628572 -25.3196173263
1177 1 1 -0.00209387 -12.550426513 -11.537365945 -25.3318072626
1198 1 1 -8.39736e-04 -10.0256300529 -11.5286391276 -25.3690302018
1219 1 1 0.00590375 -7.5061329693 -11.5288807004 -25.4180863254
1387 1 1 -5.01404e-04 -12.5699662368 -14.3296878222 -21.4996776827
1390 1 1 2.16148e-04 -12.5037627126 -9.9948028306 -21.4175149874
1408 1 1 0.00171385 -10.0595869542 -14.3741492961 -21.4874932349
1411 1 1 1.98331e-04 -10.040909277 -10.0520857808 -21.5624660083
1429 1 1 0.00319245 -7.5535455345 -14.3924333374 -21.486340652
1432 1 1 8.15168e-05 -7.5451461057 -10.059544341 -21.4950673511
1639 1 1 7.96961e-04 -11.2867048203 -12.2070631201 -21.4088980581
1642 1 1 9.67202e-05 -11.2487360866 -7.8666068558 -21.524760082
1660 1 1 0.00101623 -8.7832882221 -12.2125498424 -21.5553309713
1663 1 1 0.00140342 -8.7570123774 -7.8753336732 -21.5098313892
1621 1 1 -8.15181e-04 -13.7915133475 -7.883275379 -21.4818400902
1618 1 1 -2.41848e-05 -13.7933011273 -12.1380669088 -21.3961647613
67 1 1 0.00236404 -6.2623543941 -10.8076349094 -25.4202378135
88 1 1 -0.00485932 -3.7552630458 -10.7546398764 -25.4069227367
109 1 1 -0.00407898 -1.2379210788 -10.8079066788 -25.4192553738
316 1 1 -0.00445797 -5.0380823871 -12.933807712 -25.4994092817
319 1 1 -0.00216217 -5.0348773419 -8.6298561174 -25.3854956718
337 1 1 -0.00271854 -2.544971667 -12.9295107358 -25.4627955649
340 1 1 -0.00361949 -2.4886623384 -8.6329361706 -25.4341236932
529 1 1 4.68693e-04 -6.2716103436 -10.7786159768 -21.4736622401
550 1 1 0.00145589 -3.7629441024 -10.8157879914 -21.4983604451
571 1 1 0.00216447 -1.2475085847 -10.781997996 -21.5641674402
778 1 1 0.001871 -5.0316999264 -12.9528527076 -21.5953420634
781 1 1 0.00181222 -5.005120155 -8.627923535 -21.4705338008
799 1 1 0.00286932 -2.5075057938 -12.9692132255 -21.5661432966
802 1 1 0.00165145 -2.5248296157 -8.6407872866 -21.4378224004
988 1 1 -0.00402169 -6.2640674355 -13.6631703491 -25.5230976045
991 1 1 0.0018017 -6.2737654602 -9.3505885662 -25.4215715165
1009 1 1 -0.00199719 -3.7868161632 -13.6673404995 -25.4788054903
1012 1 1 -0.00542911 -3.744653241 -9.3091890276 -25.3895681313
1030 1 1 -2.74127e-04 -1.2780394032 -13.6172503795 -25.373827142
1033 1 1 -0.00260959 -1.2445522068 -9.3489881464 -25.4236626312
1240 1 1 -0.00203684 -4.9798389795 -11.4833442276 -25.4413794769
1261 1 1 -0.00352835 -2.4874466316 -11.4834348174 -25.3922684684
1450 1 1 0.00229987 -5.0334958569 -14.3867412783 -21.5508304095
1453 1 1 9.8183e-04 -5.0195981178 -10.0936966956 -21.4598861302
1471 1 1 0.00243426 -2.5063177167 -14.4079785471 -21.5724001752
1474 1 1 0.0013332 -2.5233652416 -10.0878687518 -21.4882616235
1681 1 1 0.00111662 -6.2892657219 -12.2191749764 -21.4833219825
1684 1 1 0.00203907 -6.2471027997 -7.901846288 -21.481401011
1702 1 1 0.00182559 -3.7676687811 -12.262981184 -21.5528611508
1705 1 1 0.0019135 -3.760125873 -7.9148610226 -21.4043426114
1723 1 1 0.00358235 -1.2645284799 -12.2239913341 -21.6079655904
1726 1 1 0.0010822 -1.2681203409 -7.92509767 -21.4394689474
820 1 1 0.00321809 -0.0142292955 -12.9425496277 -21.5528611508
106 1 1 0.0016105 -1.2533937108 -15.0729717562 -25.368909455
1492 1 1 0.00191847 -0.0096151356 -14.3849626985 -21.5876581774
361 1 1 0.00252492 -0.0101400999 -8.6100471478 -25.4389974723
358 1 1 -0.00416732 -0.0010499286 -12.9603082482 -25.356845754
1495 1 1 6.98781e-04 -0.0098361732 -10.069811185 -21.5268457082
526 1 1 0.00290977 -6.3103748127 -15.09705327 -21.5262968592
28 1 1 -0.00262994 -11.328453297 -6.4783483674 -25.3128061102
31 1 1 0.00899154 -11.3050730449 -2.1716186856 -25.4713960288
49 1 1 -0.0039434 -8.81663727 -6.4944431552 -25.3983661808
52 1 1 0.00943658 -8.8044525723 -2.1442907626 -25.4781633369
259 1 1 0.00793392 -12.5451216106 -4.316000038 -25.3816811712
280 1 1 -0.0013622 -10.0322888106 -4.3269312072 -25.4242718536
301 1 1 -0.00539513 -7.536000675 -4.3077261696 -25.4660173086
490 1 1 0.00125228 -11.2571907748 -6.4261082494 -21.5553309713
493 1 1 -0.0017055 -11.2752744134 -2.1217942956 -21.5261322045
511 1 1 0.00177253 -8.7426449334 -6.4418708746 -21.527504327
514 1 1 -9.59206e-04 -8.7733967895 -2.1423581802 -21.5381519976
721 1 1 -0.00103532 -12.5610694734 -4.2853202924 -21.5392496956
742 1 1 9.3966e-04 -10.0563266496 -4.2778617322 -21.5590082596
763 1 1 0.00164632 -7.5162454395 -4.2790695962 -21.5226195709
952 1 1 -0.00157953 -11.2972013433 -5.0262542666 -25.3652980286
955 1 1 0.00824815 -11.2885615361 -0.7355589794 -25.3716701655
973 1 1 -0.00527443 -8.790941649 -5.0521327528 -25.4651830581
976 1 1 0.0144313 -8.8134874842 -0.6963939892 -25.4101115494
1180 1 1 0.00553932 -12.5547035905 -7.2229965234 -25.2441451003
1183 1 1 0.00783808 -12.5789265485 -2.8702774198 -25.3944309335
1201 1 1 7.50779e-04 -10.0780712235 -7.212155944 -25.359858935
1204 1 1 0.00358514 -10.0575976158 -2.8957633502 -25.4756276545
1222 1 1 -0.00298657 -7.5703443921 -7.2258048072 -25.3807920358
1225 1 1 0.00240618 -7.5558111699 -2.8547261708 -25.4570216734
1393 1 1 -7.99819e-04 -12.5289167915 -5.7176960134 -21.5842004287
1396 1 1 -0.00140061 -12.5297456825 -1.3917914906 -21.4924328759
1414 1 1 0.00150009 -10.0047696294 -5.714404584 -21.6090084035
1417 1 1 -0.00298445 -10.0239999006 -1.4133820596 -21.5595022237
1435 1 1 0.00301527 -7.4813767581 -5.728898952 -21.4800837734
1438 1 1 -0.00130249 -7.5102221649 -1.4327380802 -21.5262968592
1645 1 1 -5.13188e-04 -11.3168350081 -3.5580955746 -21.5597217633
1666 1 1 2.47029e-04 -8.7963570702 -3.5766060904 -21.5643869798
469 1 1 -0.00176164 -13.7866804157 -6.438368069 -21.5623562385
934 1 1 0.00232991 -13.7954915546 -0.694672783 -25.3804682149
931 1 1 0.00710344 -13.7921821797 -5.0553033958 -25.4081137391
7 1 1 0.00402124 -13.8018877749 -6.4797978042 -25.2630529484
472 1 1 -8.82403e-05 -13.7831015406 -2.1087493644 -21.5140575265
304 1 1 0.0181565 -7.5492905607 -0.0019325824 -25.4236516542
70 1 1 -0.00545165 -6.340187259 -6.4816096002 -25.3599687048
73 1 1 0.00333733 -6.2883815715 -2.1749403116 -25.4065824503
91 1 1 -0.00458467 -3.8139208989 -6.496647507 -25.4115440453
94 1 1 2.1254e-04 -3.7922592141 -2.1533799392 -25.4198975271
112 1 1 0.0107304 -1.2990379752 -6.4592641162 -25.4004463185
115 1 1 0.00168746 -1.2573171282 -2.190310381 -25.4051060465
322 1 1 -0.0142708 -5.0292961425 -4.335023896 -25.4015659705
343 1 1 -0.00261134 -2.5410758793 -4.2974593256 -25.3357589754
532 1 1 0.00331096 -6.2424057507 -6.469017618 -21.4563734966
535 1 1 -5.11703e-05 -6.2390072976 -2.1218848854 -21.4916096024
553 1 1 0.00180305 -3.7252019322 -6.4550365922 -21.4233876717
556 1 1 7.87092e-05 -3.7474714704 -2.1508736214 -21.4340353423
574 1 1 -2.21223e-04 -1.2483374757 -6.4896418958 -21.492377991
577 1 1 2.09241e-04 -1.2328648437 -2.1478237648 -21.5084043818
784 1 1 0.00156204 -5.0010309594 -4.2938659302 -21.433102299
805 1 1 7.48343e-04 -2.4855401823 -4.295013401 -21.4495128841
994 1 1 -0.0107944 -6.3055672449 -5.024412274 -25.3752102415
997 1 1 0.0141995 -6.3045173163 -0.7296706424 -25.3951169947
1015 1 1 -0.00548121 -3.7952432217 -5.0536123862 -25.358201411
1018 1 1 0.00285737 -3.7879766106 -0.6895997542 -25.4681633081
1036 1 1 0.0096989 -1.2899754336 -5.001160892 -25.4140961932
1039 1 1 0.00201317 -1.2793379991 -0.7471242772 -25.4243267385
1243 1 1 -0.00293059 -5.0835056139 -7.183922123 -25.3543155601
1246 1 1 -0.00801054 -5.0316170373 -2.8762865432 -25.3646613637
1264 1 1 1.2424e-04 -2.5397496537 -7.177580837 -25.4747988926
1267 1 1 -5.20363e-04 -2.5382300202 -2.8641173134 -25.4238602169
1288 1 1 0.00373395 0.0012433365 -2.9151495674 -25.4027569728
1456 1 1 0.00269809 -4.9831545435 -5.7348476822 -21.4189968797
1459 1 1 -8.2078e-05 -4.9979640627 -1.401726172 -21.4430913508
1477 1 1 7.95823e-04 -2.4874190019 -5.7352100414 -21.4703142612
1480 1 1 7.45356e-07 -2.4889938948 -1.432073755 -21.4981957904
1687 1 1 0.00117989 -6.2620504674 -3.5796257504 -21.4826633637
1708 1 1 8.50481e-04 -3.7437967203 -3.5777535612 -21.4057147339
1729 1 1 -1.03461e-04 -1.2213432588 -3.5797465368 -21.4961101642
1285 1 1 0.0128827 -0.0399249165 -7.1588891416 -25.3964671633
367 1 1 0.00545194 -0.031774155 -0.02264745 -25.3550565062
1498 1 1 -0.00117136 -0.001381485 -5.7681847286 -21.4371637816
325 1 1 0.00849411 -5.0564837673 -0.0050428322 -25.4537669989
26 1 1 0.00105458 -11.3361260647 -10.7779516516 -17.4593257692
44 1 1 2.59642e-04 -8.8135703733 -15.081313416 -17.540116342
47 1 1 7.77867e-04 -8.8139295594 -10.7691342444 -17.5492821203
254 1 1 0.00111508 -12.5641391331 -12.9587168873 -17.6366039962
257 1 1 0.00134632 -12.5642524148 -8.6364389762 -17.4773829013
275 1 1 6.76267e-04 -10.0530110856 -12.9164839226 -17.5931351554
278 1 1 7.89633e-04 -10.047816702 -8.6171735454 -17.5154730219
296 1 1 4.25962e-04 -7.5476327787 -12.9485587511 -17.4756265845
299 1 1 3.34929e-04 -7.5221305656 -8.6113456016 -17.6198641017
947 1 1 7.97838e-04 -11.308195201 -13.6601084138 -17.6344086002
950 1 1 9.87849e-04 -11.289589361 -9.3479010688 -17.4337494058
968 1 1 3.033e-04 -8.8147584504 -13.6455838492 -17.5141557843
971 1 1 6.79977e-04 -8.771324562 -9.316406015 -17.5767794552
1178 1 1 9.59459e-04 -12.5901801253 -11.521965679 -17.4789196785
1199 1 1 8.57082e-04 -10.0698099432 -11.4775464804 -17.5271635056
1220 1 1 5.84007e-04 -7.5722232117 -11.5049951898 -17.6040572505
758 1 1 0.0011387 -7.5344810415 -12.9304649484 -13.79257537
509 1 1 9.88927e-04 -8.7872668989 -10.785772571 -13.7263841806
1430 1 1 0.00115531 -7.56501186 -14.375695362 -13.7630472938
929 1 1 0.001319 -13.8068218591 -9.3575035876 -17.4580085316
719 1 1 5.07872e-04 -12.5841651396 -8.614033099 -13.7376355851
1433 1 1 0.0011701 -7.5425765436 -10.069811185 -13.7538815155
1661 1 1 8.93307e-04 -8.816084676 -12.2381354215 -13.7671636613
1664 1 1 0.00114103 -8.813045409 -7.9155253478 -13.754704789
65 1 1 1.74493e-04 -6.2898183159 -15.0884958585 -17.5057583946
68 1 1 5.21275e-04 -6.3220621758 -10.7861047336 -17.6611924314
89 1 1 3.89418e-04 -3.7707909372 -10.7340155986 -17.5855610392
110 1 1 3.90434e-04 -1.2457679136 -10.75451909 -17.498403818
317 1 1 2.65228e-04 -5.0483882652 -12.8938092956 -17.5823228301
320 1 1 2.26513e-04 -5.0245714638 -8.6247830886 -17.693245213
338 1 1 9.55123e-05 -2.5459939659 -12.8940206718 -17.5218945552
341 1 1 5.41866e-04 -2.4887452275 -8.5893926734 -17.5762854911
989 1 1 2.3026e-04 -6.2911169118 -13.6452788636 -17.5383051403
992 1 1 4.19717e-04 -6.2818609623 -9.3503469934 -17.6283712612
1010 1 1 1.5231e-04 -3.797702265 -13.6133550181 -17.5156376766
1013 1 1 3.98026e-04 -3.7569484575 -9.3049615036 -17.5928607309
1031 1 1 1.46796e-05 -1.3080176277 -13.6254306384 -17.5513128616
1034 1 1 7.15138e-04 -1.2433917594 -9.3071054622 -17.5649792017
1241 1 1 3.89826e-04 -5.0263121349 -11.4536911664 -17.6353965284
1262 1 1 2.54653e-04 -2.5106003202 -11.4518189772 -17.5217847854
107 1 1 2.27119e-04 -1.255493568 -15.074375566 -17.5019713365
530 1 1 0.00128393 -6.2826345939 -10.7504123524 -13.7914227871
551 1 1 0.00132314 -3.7546275627 -10.8048568222 -13.8285249795
1454 1 1 0.00137706 -5.0064463806 -10.0888652396 -13.8064063648
1682 1 1 0.00110229 -6.2879118666 -12.2120455591 -13.8317083037
1724 1 1 0.0012433 -1.2562671996 -12.2061904384 -13.7823667786
572 1 1 0.00112656 -1.2621799554 -10.7625513856 -13.7830253974
1475 1 1 0.00129249 -2.5141092921 -10.053203055 -13.7714995684
779 1 1 0.00133092 -5.0459844813 -12.9316999893 -13.7761647849
86 1 1 2.80293e-04 -3.7846057872 -15.0682885957 -17.4316637796
359 1 1 1.60089e-04 -0.0356699427 -12.9342032875 -17.503343459
782 1 1 0.00158603 -5.0414808402 -8.634868753 -13.7277014182
1703 1 1 0.00127504 -3.7605403185 -12.2423116113 -13.8126083585
1496 1 1 8.98941e-04 -0.0041720847 -10.0513308658 -13.7392272472
1283 1 1 3.87394e-04 -0.00552594 -11.4991370494 -17.5120701581
527 1 1 0.00127026 -6.3047936133 -15.08903828 -13.7291833105
29 1 1 0.00105168 -11.2814772811 -6.4572107474 -17.5712909652
32 1 1 0.00191685 -11.3048630591 -2.15754707 -17.5389088742
50 1 1 2.52241e-04 -8.7781214682 -6.4553083616 -17.633420672
53 1 1 0.00160597 -8.7556308924 -2.1881664224 -17.6518619984
260 1 1 0.00129976 -12.5755004657 -4.3351144858 -17.4968670408
281 1 1 0.00118864 -10.0416552789 -4.3013848836 -17.6535634303
302 1 1 5.17643e-04 -7.5204451539 -4.3296489012 -17.6829817367
932 1 1 0.00150708 -13.8046961129 -5.076652392 -17.5383051403
953 1 1 0.00114436 -11.2957894657 -5.0177086288 -17.5688760296
956 1 1 0.00152012 -11.3169676307 -0.7065098502 -17.4673389646
974 1 1 6.05831e-04 -8.7878747523 -5.0104010516 -17.6919279754
977 1 1 0.00189734 -8.8084036194 -0.7284023852 -17.6334755569
1181 1 1 0.00116267 -12.5333734621 -7.1968462678 -17.4830909309
1184 1 1 0.00141056 -12.5509266105 -2.8920491684 -17.4695343606
1202 1 1 7.12019e-04 -10.0378976397 -7.1821405236 -17.6109727479
1205 1 1 0.0014558 -10.046711514 -2.8487774406 -17.5918728027
1223 1 1 6.79136e-05 -7.5258605751 -7.166559078 -17.642751105
1226 1 1 0.00119792 -7.5081499374 -2.8797591522 -17.6993923218
263 1 1 0.00152484 -12.5845547184 -0.0259086828 -17.4752972751
491 1 1 6.87483e-04 -11.32265106 -6.4660583512 -13.7186454097
512 1 1 0.00114585 -8.8269707778 -6.4509902478 -13.7532777816
8 1 1 0.00155621 -13.8146455054 -6.5260287988 -17.5366585933
11 1 1 0.00136225 -13.8096332916 -2.1855695148 -17.4757912392
284 1 1 0.00200116 -10.0492810761 -0.0173328484 -17.5968124437
305 1 1 0.00162637 -7.550644416 -0.0125013924 -17.647690746
1415 1 1 8.33836e-04 -10.0689534225 -5.7528448558 -13.7235850507
1436 1 1 0.00134054 -7.5460578858 -5.7736805098 -13.7276465333
71 1 1 -1.46309e-05 -6.2632109148 -6.4568785848 -17.7017523725
74 1 1 0.00118099 -6.2534576307 -2.1573356938 -17.6721694114
92 1 1 2.88009e-04 -3.7752945783 -6.4550063956 -17.5619056473
95 1 1 8.07043e-04 -3.7342644738 -2.1323027124 -17.5292491318
113 1 1 8.31508e-04 -1.2357383325 -6.4609551258 -17.51377159
116 1 1 0.00111179 -1.2300466143 -2.1369529888 -17.6205227205
323 1 1 4.1673e-04 -5.0018322207 -4.2801264772 -17.5855061543
344 1 1 7.87781e-04 -2.4883860414 -4.3051896552 -17.5960440551
995 1 1 2.72739e-04 -6.2603650557 -5.0191580656 -17.6784811749
998 1 1 0.00144096 -6.2925260265 -0.6881201208 -17.665802763
1016 1 1 4.66381e-04 -3.7560643071 -4.9961482564 -17.5746389441
1019 1 1 8.44791e-04 -3.7613968392 -0.6890260188 -17.5305663694
1037 1 1 0.00117552 -1.2480611787 -5.0263448564 -17.6318838948
1040 1 1 0.00118759 -1.2376724115 -0.6971489042 -17.647690746
1244 1 1 1.09811e-04 -5.0143761045 -7.1921355982 -17.6409947882
1247 1 1 9.7131e-04 -4.9837900266 -2.8368497836 -17.6272186783
1265 1 1 5.42004e-04 -2.5210167171 -7.1447269362 -17.5103138413
1268 1 1 0.00108481 -2.4741567459 -2.857655241 -17.6091615462
1643 1 1 7.307e-04 -11.3245050129 -7.9147704328 -13.7075586599
927 1 1 0.00115691 -13.7836599369 -13.6758166852 -9.7361421808
27 1 1 0.00130079 -11.3547457195 -10.795737449 -9.7301048418
48 1 1 7.13712e-04 -8.835149169 -10.7697381764 -9.7048029029
255 1 1 0.00124438 -12.5133695593 -12.9985341241 -9.7778547048
258 1 1 8.26747e-04 -12.5843557846 -8.6486685992 -9.7724210997
276 1 1 3.99157e-04 -10.0084167498 -12.9282817342 -9.7010158448
279 1 1 3.82156e-04 -10.0658588961 -8.627470586 -9.6389410229
297 1 1 1.4831e-05 -7.5277393947 -12.9110636329 -9.7888316848
300 1 1 -0.00120483 -7.5538218315 -8.5914460422 -9.6251100281
488 1 1 6.63384e-04 -11.301464606 -10.7598336916 -13.6588208687
716 1 1 6.75972e-04 -12.5684355514 -12.8975264971 -13.634506858
737 1 1 0.00109456 -10.0497784107 -12.9254825094 -13.6105770416
740 1 1 8.89381e-04 -10.0648918566 -8.614184082 -13.7181514456
761 1 1 0.00148643 -7.5729139542 -8.6252964308 -13.6934532406
948 1 1 2.76803e-05 -11.2502225644 -13.686768992 -9.6746162079
951 1 1 9.7807e-04 -11.3271961456 -9.349924241 -9.7391059654
969 1 1 -1.37717e-04 -8.7711864135 -13.6747024306 -9.7577668314
972 1 1 4.34122e-04 -8.8085141382 -9.3215092404 -9.6517840895
1179 1 1 0.00137915 -12.5899977693 -11.5435260514 -9.7575472918
1200 1 1 0.00102733 -10.0839010902 -11.491165147 -9.6844954899
1221 1 1 0.00104747 -7.5825290898 -11.468970646 -9.8332335689
1388 1 1 9.26498e-04 -12.5558833787 -14.3455742535 -13.5376350095
1391 1 1 5.31431e-04 -12.5641695257 -10.048975531 -13.6831348794
1409 1 1 0.00113931 -10.0755845505 -14.3848056762 -13.5808294258
1412 1 1 8.64736e-04 -10.0442801004 -10.0605106322 -13.6787989723
1640 1 1 7.70535e-04 -11.3048077997 -12.2026936721 -13.6312686489
506 1 1 0.00129836 -8.824649883 -15.0754552756 -13.6314881885
464 1 1 7.5115e-04 -13.8095578349 -15.0579183888 -13.5808294258
1493 1 1 0.00131694 -0.0258061398 -14.3586765582 -13.7184258701
360 1 1 -3.03928e-04 -0.0293980008 -12.9369813747 -9.8437714697
69 1 1 1.91784e-04 -6.3262342605 -10.7522845416 -9.8100721411
90 1 1 -5.45795e-04 -3.7900764678 -10.7692248342 -9.8284036977
111 1 1 -4.48929e-04 -1.2792827397 -10.7723652806 -9.8180304516
318 1 1 4.42556e-05 -5.0266436913 -12.8983508643 -9.8428933113
321 1 1 -0.00126508 -5.0613189648 -8.5612192456 -9.7303792663
339 1 1 -6.34151e-04 -2.5118712864 -12.9326602412 -9.8106209901
342 1 1 1.47944e-05 -2.5507186446 -8.63773743 -9.8178657969
363 1 1 7.73105e-04 -0.046141599 -8.5954923866 -9.7549677015
800 1 1 0.00151524 -2.5035823764 -12.9354262498 -13.7152425459
803 1 1 0.00117042 -2.5414903248 -8.6121005166 -13.6921908879
824 1 1 6.11018e-04 -0.0286243692 -8.616750793 -13.666888949
990 1 1 -1.05821e-04 -6.2810044416 -13.6193943381 -9.8171522932
993 1 1 -9.73594e-04 -6.2983558932 -9.3110310202 -9.7100169684
1011 1 1 -4.252e-04 -3.7907395806 -13.6062527777 -9.7970644198
1014 1 1 -0.00151128 -3.8167943877 -9.3267030556 -9.755242126
1032 1 1 -1.77476e-04 -1.2684518973 -13.6691945708 -9.8428384264
1035 1 1 2.41453e-04 -1.2835100838 -9.3359130186 -9.8140787388
1242 1 1 -6.00087e-05 -5.0682263898 -11.4456890674 -9.8464608298
1263 1 1 -2.9429e-04 -2.5398325428 -11.4819853806 -9.8487111107
1284 1 1 4.88301e-04 -0.0164949309 -11.4978385956 -9.8700613368
1451 1 1 0.00135686 -5.0637503784 -14.3765861617 -13.7053632639
1472 1 1 0.00137837 -2.5512436089 -14.3796813132 -13.6856595848
1685 1 1 0.00184774 -6.2931338799 -7.9204473936 -13.6571743217
1706 1 1 0.00174308 -3.8067095472 -7.905016931 -13.6477341189
1727 1 1 0.00106602 -1.2889807644 -7.912717064 -13.5601927034
66 1 1 1.06126e-04 -6.2535681495 -15.0729573223 -9.808480479
87 1 1 -2.62727e-04 -3.7823401518 -15.0591005857 -9.7341114395
569 1 1 0.00141848 -1.2872953527 -15.0547232865 -13.6474596944
764 1 1 0.00107774 -7.5401727597 -4.3294979182 -13.7016859756
1625 1 1 4.37682e-04 -13.777433584 -3.54659067 -13.6089853795
30 1 1 9.02384e-04 -11.3353248034 -6.4646693076 -9.6656150843
33 1 1 0.00196438 -11.3493026686 -2.1685084358 -9.6743966683
51 1 1 -2.95874e-04 -8.8250366988 -6.4674171982 -9.6450881317
54 1 1 0.0023655 -8.826860259 -2.1474010124 -9.7603464217
261 1 1 0.00146249 -12.5997040829 -4.3306151924 -9.7464056571
282 1 1 0.00183686 -10.0603605858 -4.3099909146 -9.6451430166
303 1 1 1.62748e-04 -7.5723613602 -4.2819986664 -9.6683593293
494 1 1 2.36128e-04 -11.3046972809 -2.1151510436 -13.5586010413
515 1 1 2.13926e-04 -8.8232960277 -2.1467970804 -13.6760547273
722 1 1 4.3802e-04 -12.5466605848 -4.2893968334 -13.7048144149
743 1 1 5.61962e-04 -10.0519058976 -4.2993013182 -13.6971854138
954 1 1 0.0016129 -11.3140665122 -5.0091931876 -9.6730245458
957 1 1 0.00162602 -11.3129668501 -0.7281608124 -9.7337821301
975 1 1 4.55036e-04 -8.8086799164 -5.0242310944 -9.6267016902
978 1 1 0.00222041 -8.7862446 -0.7095295102 -9.7948690238
1182 1 1 8.708e-04 -12.5689494638 -7.1988090468 -9.7572728673
1185 1 1 0.00163164 -12.5937554085 -2.9042485948 -9.6500277727
1203 1 1 4.2411e-04 -10.0769107761 -7.1863680476 -9.6634745732
1206 1 1 0.00239227 -10.0824367161 -2.85659836 -9.6893253611
1224 1 1 -7.83343e-04 -7.5502023408 -7.1578926538 -9.6775251076
1227 1 1 0.00136596 -7.5517219743 -2.8337395338 -9.7375143033
1394 1 1 5.17914e-04 -12.5809131239 -5.7377767524 -13.7204566114
1397 1 1 3.30634e-04 -12.5632107752 -1.4214143552 -13.5091497464
1418 1 1 1.01902e-04 -10.0635103716 -1.4044740626 -13.6078327966
1439 1 1 3.40118e-04 -7.5730797324 -1.426336401 -13.6346715127
1646 1 1 3.60748e-04 -11.2922031306 -3.5638631252 -13.6598636818
1667 1 1 5.37809e-04 -8.7901956471 -3.596717026 -13.7179867909
285 1 1 0.00191239 -10.0657207476 -0.0030800532 -9.7866362888
264 1 1 0.00105883 -12.5761304229 -0.0170308824 -9.7021135428
785 1 1 0.00127931 -5.0318380749 -4.3050386722 -13.7047046451
1688 1 1 0.00103163 -6.2952613668 -3.6042963726 -13.7027836736
1502 1 1 4.73719e-04 -0.03868158 -1.437811109 -13.6700722732
827 1 1 5.03464e-04 -0.0194513088 -4.3107760262 -13.6384585708
578 1 1 4.6844e-04 -1.2987616782 -2.1388855712 -13.6955937517
1709 1 1 0.0010374 -3.7802679243 -3.6017900548 -13.6631018909
1287 1 1 0.00150556 -0.0364435743 -7.1650794446 -9.8012356722
1499 1 1 4.76565e-04 -0.0214406472 -5.7563476614 -13.5937273773
72 1 1 -0.0014459 -6.3292182681 -6.3899629192 -9.67620787
75 1 1 9.11424e-04 -6.2873869023 -2.1520814854 -9.7723662148
93 1 1 -0.00122498 -3.8015427933 -6.4517149662 -9.6916305269
96 1 1 2.08328e-04 -3.7547104518 -2.1615330212 -9.7015098089
114 1 1 0.00117817 -1.3117200075 -6.4842970976 -9.8140238539
117 1 1 0.00160293 -1.2179724354 -2.1609290892 -9.79695465
324 1 1 -6.01132e-04 -5.005949046 -4.2959494956 -9.7307085757
345 1 1 7.04658e-04 -2.4995760699 -4.3104438636 -9.7989853913
533 1 1 0.00180747 -6.2960626281 -6.4812170444 -13.6601381063
536 1 1 6.92545e-04 -6.3143811192 -2.1524740412 -13.6473499246
554 1 1 0.00140586 -3.7828651161 -6.4552177718 -13.6716639353
557 1 1 9.29361e-04 -3.7932262536 -2.1515681432 -13.6117845094
575 1 1 8.16674e-04 -1.280912892 -6.4676285744 -13.5391169018
806 1 1 9.13858e-04 -2.5138329951 -4.3002374128 -13.6199074746
996 1 1 -0.00106464 -6.2975822616 -4.9559867784 -9.6769762586
999 1 1 0.00119877 -6.2673277401 -0.7075969278 -9.7485461682
1017 1 1 -7.33292e-04 -3.7499305137 -5.0173764662 -9.7130356379
1020 1 1 6.57618e-04 -3.726693936 -0.7290365138 -9.691575642
1038 1 1 0.00151487 -1.2469559907 -5.0427416102 -9.8465157147
1041 1 1 0.00118539 -1.1846510172 -0.7323279432 -9.7386120013
1245 1 1 -0.00243034 -5.0795269371 -7.1454818512 -9.6496984633
1248 1 1 -7.76569e-05 -5.0173601121 -2.8611580466 -9.7363068355
1266 1 1 -7.19377e-04 -2.5605271881 -7.200983202 -9.7293364532
1269 1 1 7.26133e-04 -2.4867282594 -2.8673483496 -9.716822696
1457 1 1 0.00162542 -5.0320867422 -5.7536903606 -13.6864279734
1460 1 1 7.85546e-04 -5.0732549952 -1.434036534 -13.6089304946
1478 1 1 0.00113862 -2.5335882306 -5.7537205572 -13.5848909084
1481 1 1 7.1093e-04 -2.5615218573 -1.4208708164 -13.6373059879
1730 1 1 5.2951e-04 -1.2763816212 -3.5811355804 -13.6607418402
348 1 1 7.99824e-04 -2.4591814485 -0.0427583856 -9.6567237305
327 1 1 4.32882e-04 -5.0024953335 -0.0252443576 -9.6899839799
1623 1 1 0.00201686 -13.7912501746 -7.9730196742 -5.9180192274
468 1 1 -0.0020268 -13.8120682418 -10.8042830868 -5.8463944329
489 1 1 -0.00121402 -11.2843783996 -10.8125267586 -5.8513340739
510 1 1 -3.93807e-04 -8.7783425058 -10.8141271784 -5.793650044
717 1 1 -3.46968e-04 -12.5710658989 -12.9580253852 -5.868293508
720 1 1 0.00448593 -12.5492190951 -8.6640386686 -5.8135732627
738 1 1 5.46956e-04 -10.0399146078 -12.9733229828 -5.8398631298
741 1 1 0.00228194 -10.060250067 -8.6488497788 -5.8445283463
759 1 1 0.00143214 -7.5088406799 -12.9611658316 -5.8255381709
762 1 1 0.00381963 -7.5366914175 -8.6808279782 -5.8866250646
1389 1 1 0.00260366 -12.5730911559 -14.4071511602 -5.8966141164
1392 1 1 0.00100658 -12.5342299828 -10.1150154952 -5.8744406168
1410 1 1 0.00468811 -10.047816702 -14.4080842352 -5.8350881435
1413 1 1 -4.69995e-04 -10.0285588011 -10.100309751 -5.8119816006
1431 1 1 0.00277379 -7.5148915842 -14.4056322712 -5.8493582175
1434 1 1 9.18985e-04 -7.518593964 -10.13397896 -5.8593472693
1641 1 1 -0.00128965 -11.3060096917 -12.2568361759 -5.8751541205
1644 1 1 0.00330247 -11.3086621429 -7.9449368362 -5.8185129037
1662 1 1 0.00105251 -8.7897259422 -12.2769531508 -5.7829474885
1665 1 1 0.00298613 -8.7772649475 -7.966617995 -5.8963945768
2011 1 2 -0.694899 -12.7291409385 -8.6583013146 -0.0116904837
2634 1 3 0.335415 -11.0395571538 -12.2768051875 -0.4049956771
3714 1 3 0.449188 -8.1371676876 -13.2441049539 -0.0529639285
1476 1 1 0.00417902 -2.4814509867 -10.0380141652 -5.9151103277
1473 1 1 0.00464971 -2.4931936092 -14.3385777013 -5.7411800796
1455 1 1 0.00523518 -5.0026611117 -10.0830372958 -5.888600921
1452 1 1 0.00193553 -5.0124972849 -14.400154608 -5.7915095329
3329 1 3 0.425346 -3.4122126906 -10.2562449934 -0.8302438823
3290 1 3 0.42119 -0.2102896467 -13.075136859 -0.282657235
2880 1 3 0.45469 -2.7090368256 -12.6562677417 -0.9794210405
2879 1 3 0.334668 -4.2111530958 -12.383643778 -0.4424271789
2320 1 2 -0.503258 -1.8439509186 -13.2837017555 -0.7914951429
2267 1 2 -0.648642 -2.9655509604 -9.4281938282 -0.6413300565
804 1 1 0.00303578 -2.512644918 -8.6034944856 -5.9480412677
2042 1 2 -0.645869 -3.6761592147 -11.9526597848 -1.0782687454
801 1 1 0.00519935 -2.476726308 -12.8976140672 -5.7911253386
1728 1 1 0.00275768 -1.243060203 -7.9194509058 -5.9058896645
1725 1 1 0.0027803 -1.1965041585 -12.2048255521 -5.8503461457
783 1 1 0.00729952 -4.9852544007 -8.6234242416 -5.8690070117
1707 1 1 0.00529484 -3.7654307754 -7.8760583916 -5.8975471597
1704 1 1 0.00604754 -3.7350381054 -12.2090681744 -5.8403570939
1686 1 1 0.00682191 -6.2781862122 -7.9683392012 -5.8816305387
1683 1 1 0.00217864 -6.2505841419 -12.2683984541 -5.8423329503
780 1 1 0.00590977 -4.9995389556 -12.9418400076 -5.7926621158
573 1 1 0.00323571 -1.228969056 -10.7832964498 -5.8903572378
531 1 1 0.00195889 -6.2323209102 -10.8213139692 -5.8943089506
552 1 1 0.00620571 -3.7439624985 -10.7640612156 -5.8974922748
549 1 1 0.0021926 -3.7332698046 -15.0756488358 -5.7664820185
570 1 1 0.00502581 -1.2485585133 -15.0875345195 -5.658084341
3834 1 3 0.436118 -2.0218309272 -9.6320510748 -0.0731615717
747 1 1 -0.00227884 -10.0571002812 -0.035028056 -5.8448576557
474 1 1 0.00281214 -13.7863880934 -2.1862036434 -5.7438145548
765 1 1 0.00268528 -7.5104708322 -4.365673445 -5.858414226
1395 1 1 -0.00205362 -12.5454172484 -5.8103995754 -5.8300387327
744 1 1 -0.00154418 -10.0170095865 -4.351028094 -5.8807523803
726 1 1 0.00207386 -12.5327877125 -0.0125617856 -5.8553406716
723 1 1 -0.00304929 -12.549498155 -4.3682099594 -5.8092373556
516 1 1 -0.00420429 -8.7926546904 -2.1971348126 -5.8522122323
513 1 1 0.00224949 -8.7722363421 -6.523220515 -5.9316855675
495 1 1 -0.00362348 -11.3014121096 -2.2050161252 -5.8192812923
1398 1 1 0.00136111 -12.5339868415 -1.4635990054 -5.7844293808
492 1 1 7.63088e-04 -11.2745007818 -6.4917254612 -5.834813719
1416 1 1 0.00263373 -10.01024031 -5.7875709458 -5.8540783189
3789 1 3 0.315746 -11.6359608061 -2.3548516544 -0.7473676833
2978 1 3 0.335322 -12.4041438293 -5.685264865 -0.4318892781
1668 1 1 -0.00153272 -8.7653565468 -3.6462092534 -5.8873934532
1647 1 1 -0.00389125 -11.2938167051 -3.6614283398 -5.8429366842
1626 1 1 -0.00102259 -13.7932140108 -3.6291481744 -5.7388200289
1440 1 1 -0.00342385 -7.5595411794 -1.4534831444 -5.8257577105
1437 1 1 0.00604332 -7.5090893472 -5.8057191024 -5.8675800043
1419 1 1 -0.00383863 -10.0525413807 -1.4918026298 -5.8712572926
768 1 1 -0.00329756 -7.529369547 -0.0060997132 -5.7963394041
471 1 1 -8.26538e-05 -13.8049710008 -6.5169698188 -5.8409608278
3279 1 3 0.380675 -5.9908649619 -5.2581943512 -0.3883655524
576 1 1 -3.35461e-04 -1.2479506599 -6.478227581 -5.8782825598
558 1 1 0.00224304 -3.7743275388 -2.1451362674 -5.8245502427
555 1 1 0.00651276 -3.7427744214 -6.4275576862 -5.9062738588
579 1 1 -0.00159873 -1.2626220306 -2.136258467 -5.9135186656
1479 1 1 0.00352897 -2.4871150752 -5.72376553 -5.8646711046
786 1 1 0.007314 -5.0164207023 -4.3172380986 -5.8974373899
2388 1 2 -0.74336 -0.2454622548 -1.4508560402 -0.1434691286
1461 1 1 0.00258139 -5.0393533533 -1.4669810246 -5.8250990917
789 1 1 4.63682e-04 -5.0228307927 -0.0319480028 -5.8564932545