# LAMMPS data file written by Ovito 3.10.6

3853 atoms
6 atom types

0.0 27.3713703156 xlo xhi
0.0 29.9143161774 ylo yhi
0.0 54.3718338013 zlo zhi

Masses

1 12.0107  # C
2 15.9994  # O
3 1.00794  # H
4 14.0067  # N
5 32.065  # S
6 39.10  # K

Atoms  # full

1 1 1 0.0 0.0 0.0 1.950767786
2 1 1 0.0 0.0 0.0 9.753840954
3 1 1 0.0 0.0 0.0 17.556912906
4 1 1 0.0 0.0 4.273473931 1.950767786
5 1 1 0.0 0.0 4.273473931 9.753840954
6 1 1 0.0 0.0 4.273473931 17.556912906
7 1 1 0.0 0.0 8.546947861 1.950767786
8 1 1 0.0 0.0 8.546947861 9.753840954
9 1 1 0.0 0.0 8.546947861 17.556912906
10 1 1 0.0 0.0 12.820420455 1.950767786
11 1 1 0.0 0.0 12.820420455 9.753840954
12 1 1 0.0 0.0 12.820420455 17.556912906
13 1 1 0.0 0.0 17.093895723 1.950767786
14 1 1 0.0 0.0 17.093895723 9.753840954
15 1 1 0.0 0.0 17.093895723 17.556912906
16 1 1 0.0 0.0 21.367367425 1.950767786
17 1 1 0.0 0.0 21.367367425 9.753840954
18 1 1 0.0 0.0 21.367367425 17.556912906
19 1 1 0.0 0.0 25.640840909 1.950767786
20 1 1 0.0 0.0 25.640840909 9.753840954
21 1 1 0.0 0.0 25.640840909 17.556912906
22 1 1 0.0 2.488305855 0.0 1.950767786
23 1 1 0.0 2.488305855 0.0 9.753840954
24 1 1 0.0 2.488305855 0.0 17.556912906
25 1 1 0.0 2.488305855 4.273473931 1.950767786
26 1 1 0.0 2.488305855 4.273473931 9.753840954
27 1 1 0.0 2.488305855 4.273473931 17.556912906
28 1 1 0.0 2.488305855 8.546947861 1.950767786
29 1 1 0.0 2.488305855 8.546947861 9.753840954
30 1 1 0.0 2.488305855 8.546947861 17.556912906
31 1 1 0.0 2.488305855 12.820420455 1.950767786
32 1 1 0.0 2.488305855 12.820420455 9.753840954
33 1 1 0.0 2.488305855 12.820420455 17.556912906
34 1 1 0.0 2.488305855 17.093895723 1.950767786
35 1 1 0.0 2.488305855 17.093895723 9.753840954
36 1 1 0.0 2.488305855 17.093895723 17.556912906
37 1 1 0.0 2.488305855 21.367367425 1.950767786
38 1 1 0.0 2.488305855 21.367367425 9.753840954
39 1 1 0.0 2.488305855 21.367367425 17.556912906
40 1 1 0.0 2.488305855 25.640840909 1.950767786
41 1 1 0.0 2.488305855 25.640840909 9.753840954
42 1 1 0.0 2.488305855 25.640840909 17.556912906
43 1 1 0.0 4.976612525 0.0 1.950767786
44 1 1 0.0 4.976612525 0.0 9.753840954
45 1 1 0.0 4.976612525 0.0 17.556912906
46 1 1 0.0 4.976612525 4.273473931 1.950767786
47 1 1 0.0 4.976612525 4.273473931 9.753840954
48 1 1 0.0 4.976612525 4.273473931 17.556912906
49 1 1 0.0 4.976612525 8.546947861 1.950767786
50 1 1 0.0 4.976612525 8.546947861 9.753840954
51 1 1 0.0 4.976612525 8.546947861 17.556912906
52 1 1 0.0 4.976612525 12.820420455 1.950767786
53 1 1 0.0 4.976612525 12.820420455 9.753840954
54 1 1 0.0 4.976612525 12.820420455 17.556912906
55 1 1 0.0 4.976612525 17.093895723 1.950767786
56 1 1 0.0 4.976612525 17.093895723 9.753840954
57 1 1 0.0 4.976612525 17.093895723 17.556912906
58 1 1 0.0 4.976612525 21.367367425 1.950767786
59 1 1 0.0 4.976612525 21.367367425 9.753840954
60 1 1 0.0 4.976612525 21.367367425 17.556912906
61 1 1 0.0 4.976612525 25.640840909 1.950767786
62 1 1 0.0 4.976612525 25.640840909 9.753840954
63 1 1 0.0 4.976612525 25.640840909 17.556912906
64 1 1 0.0 7.464918584 0.0 1.950767786
65 1 1 0.0 7.464918584 0.0 9.753840954
66 1 1 0.0 7.464918584 0.0 17.556912906
67 1 1 0.0 7.464918584 4.273473931 1.950767786
68 1 1 0.0 7.464918584 4.273473931 9.753840954
69 1 1 0.0 7.464918584 4.273473931 17.556912906
70 1 1 0.0 7.464918584 8.546947861 1.950767786
71 1 1 0.0 7.464918584 8.546947861 9.753840954
72 1 1 0.0 7.464918584 8.546947861 17.556912906
73 1 1 0.0 7.464918584 12.820420455 1.950767786
74 1 1 0.0 7.464918584 12.820420455 9.753840954
75 1 1 0.0 7.464918584 12.820420455 17.556912906
76 1 1 0.0 7.464918584 17.093895723 1.950767786
77 1 1 0.0 7.464918584 17.093895723 9.753840954
78 1 1 0.0 7.464918584 17.093895723 17.556912906
79 1 1 0.0 7.464918584 21.367367425 1.950767786
80 1 1 0.0 7.464918584 21.367367425 9.753840954
81 1 1 0.0 7.464918584 21.367367425 17.556912906
82 1 1 0.0 7.464918584 25.640840909 1.950767786
83 1 1 0.0 7.464918584 25.640840909 9.753840954
84 1 1 0.0 7.464918584 25.640840909 17.556912906
85 1 1 0.0 9.953224234 0.0 1.950767786
86 1 1 0.0 9.953224234 0.0 9.753840954
87 1 1 0.0 9.953224234 0.0 17.556912906
88 1 1 0.0 9.953224234 4.273473931 1.950767786
89 1 1 0.0 9.953224234 4.273473931 9.753840954
90 1 1 0.0 9.953224234 4.273473931 17.556912906
91 1 1 0.0 9.953224234 8.546947861 1.950767786
92 1 1 0.0 9.953224234 8.546947861 9.753840954
93 1 1 0.0 9.953224234 8.546947861 17.556912906
94 1 1 0.0 9.953224234 12.820420455 1.950767786
95 1 1 0.0 9.953224234 12.820420455 9.753840954
96 1 1 0.0 9.953224234 12.820420455 17.556912906
97 1 1 0.0 9.953224234 17.093895723 1.950767786
98 1 1 0.0 9.953224234 17.093895723 9.753840954
99 1 1 0.0 9.953224234 17.093895723 17.556912906
100 1 1 0.0 9.953224234 21.367367425 1.950767786
101 1 1 0.0 9.953224234 21.367367425 9.753840954
102 1 1 0.0 9.953224234 21.367367425 17.556912906
103 1 1 0.0 9.953224234 25.640840909 1.950767786
104 1 1 0.0 9.953224234 25.640840909 9.753840954
105 1 1 0.0 9.953224234 25.640840909 17.556912906
106 1 1 0.0 12.441531517 0.0 1.950767786
107 1 1 0.0 12.441531517 0.0 9.753840954
108 1 1 0.0 12.441531517 0.0 17.556912906
109 1 1 0.0 12.441531517 4.273473931 1.950767786
110 1 1 0.0 12.441531517 4.273473931 9.753840954
111 1 1 0.0 12.441531517 4.273473931 17.556912906
112 1 1 0.0 12.441531517 8.546947861 1.950767786
113 1 1 0.0 12.441531517 8.546947861 9.753840954
114 1 1 0.0 12.441531517 8.546947861 17.556912906
115 1 1 0.0 12.441531517 12.820420455 1.950767786
116 1 1 0.0 12.441531517 12.820420455 9.753840954
117 1 1 0.0 12.441531517 12.820420455 17.556912906
118 1 1 0.0 12.441531517 17.093895723 1.950767786
119 1 1 0.0 12.441531517 17.093895723 9.753840954
120 1 1 0.0 12.441531517 17.093895723 17.556912906
121 1 1 0.0 12.441531517 21.367367425 1.950767786
122 1 1 0.0 12.441531517 21.367367425 9.753840954
123 1 1 0.0 12.441531517 21.367367425 17.556912906
124 1 1 0.0 12.441531517 25.640840909 1.950767786
125 1 1 0.0 12.441531517 25.640840909 9.753840954
126 1 1 0.0 12.441531517 25.640840909 17.556912906
127 1 1 0.0 14.929837167 0.0 1.950767786
128 1 1 0.0 14.929837167 0.0 9.753840954
129 1 1 0.0 14.929837167 0.0 17.556912906
130 1 1 0.0 14.929837167 4.273473931 1.950767786
131 1 1 0.0 14.929837167 4.273473931 9.753840954
132 1 1 0.0 14.929837167 4.273473931 17.556912906
133 1 1 0.0 14.929837167 8.546947861 1.950767786
134 1 1 0.0 14.929837167 8.546947861 9.753840954
135 1 1 0.0 14.929837167 8.546947861 17.556912906
136 1 1 0.0 14.929837167 12.820420455 1.950767786
137 1 1 0.0 14.929837167 12.820420455 9.753840954
138 1 1 0.0 14.929837167 12.820420455 17.556912906
139 1 1 0.0 14.929837167 17.093895723 1.950767786
140 1 1 0.0 14.929837167 17.093895723 9.753840954
141 1 1 0.0 14.929837167 17.093895723 17.556912906
142 1 1 0.0 14.929837167 21.367367425 1.950767786
143 1 1 0.0 14.929837167 21.367367425 9.753840954
144 1 1 0.0 14.929837167 21.367367425 17.556912906
145 1 1 0.0 14.929837167 25.640840909 1.950767786
146 1 1 0.0 14.929837167 25.640840909 9.753840954
147 1 1 0.0 14.929837167 25.640840909 17.556912906
148 1 1 0.0 17.418142818 0.0 1.950767786
149 1 1 0.0 17.418142818 0.0 9.753840954
150 1 1 0.0 17.418142818 0.0 17.556912906
151 1 1 0.0 17.418142818 4.273473931 1.950767786
152 1 1 0.0 17.418142818 4.273473931 9.753840954
153 1 1 0.0 17.418142818 4.273473931 17.556912906
154 1 1 0.0 17.418142818 8.546947861 1.950767786
155 1 1 0.0 17.418142818 8.546947861 9.753840954
156 1 1 0.0 17.418142818 8.546947861 17.556912906
157 1 1 0.0 17.418142818 12.820420455 1.950767786
158 1 1 0.0 17.418142818 12.820420455 9.753840954
159 1 1 0.0 17.418142818 12.820420455 17.556912906
160 1 1 0.0 17.418142818 17.093895723 1.950767786
161 1 1 0.0 17.418142818 17.093895723 9.753840954
162 1 1 0.0 17.418142818 17.093895723 17.556912906
163 1 1 0.0 17.418142818 21.367367425 1.950767786
164 1 1 0.0 17.418142818 21.367367425 9.753840954
165 1 1 0.0 17.418142818 21.367367425 17.556912906
166 1 1 0.0 17.418142818 25.640840909 1.950767786
167 1 1 0.0 17.418142818 25.640840909 9.753840954
168 1 1 0.0 17.418142818 25.640840909 17.556912906
169 1 1 0.0 19.906448469 0.0 1.950767786
170 1 1 0.0 19.906448469 0.0 9.753840954
171 1 1 0.0 19.906448469 0.0 17.556912906
172 1 1 0.0 19.906448469 4.273473931 1.950767786
173 1 1 0.0 19.906448469 4.273473931 9.753840954
174 1 1 0.0 19.906448469 4.273473931 17.556912906
175 1 1 0.0 19.906448469 8.546947861 1.950767786
176 1 1 0.0 19.906448469 8.546947861 9.753840954
177 1 1 0.0 19.906448469 8.546947861 17.556912906
178 1 1 0.0 19.906448469 12.820420455 1.950767786
179 1 1 0.0 19.906448469 12.820420455 9.753840954
180 1 1 0.0 19.906448469 12.820420455 17.556912906
181 1 1 0.0 19.906448469 17.093895723 1.950767786
182 1 1 0.0 19.906448469 17.093895723 9.753840954
183 1 1 0.0 19.906448469 17.093895723 17.556912906
184 1 1 0.0 19.906448469 21.367367425 1.950767786
185 1 1 0.0 19.906448469 21.367367425 9.753840954
186 1 1 0.0 19.906448469 21.367367425 17.556912906
187 1 1 0.0 19.906448469 25.640840909 1.950767786
188 1 1 0.0 19.906448469 25.640840909 9.753840954
189 1 1 0.0 19.906448469 25.640840909 17.556912906
190 1 1 0.0 22.394755751 0.0 1.950767786
191 1 1 0.0 22.394755751 0.0 9.753840954
192 1 1 0.0 22.394755751 0.0 17.556912906
193 1 1 0.0 22.394755751 4.273473931 1.950767786
194 1 1 0.0 22.394755751 4.273473931 9.753840954
195 1 1 0.0 22.394755751 4.273473931 17.556912906
196 1 1 0.0 22.394755751 8.546947861 1.950767786
197 1 1 0.0 22.394755751 8.546947861 9.753840954
198 1 1 0.0 22.394755751 8.546947861 17.556912906
199 1 1 0.0 22.394755751 12.820420455 1.950767786
200 1 1 0.0 22.394755751 12.820420455 9.753840954
201 1 1 0.0 22.394755751 12.820420455 17.556912906
202 1 1 0.0 22.394755751 17.093895723 1.950767786
203 1 1 0.0 22.394755751 17.093895723 9.753840954
204 1 1 0.0 22.394755751 17.093895723 17.556912906
205 1 1 0.0 22.394755751 21.367367425 1.950767786
206 1 1 0.0 22.394755751 21.367367425 9.753840954
207 1 1 0.0 22.394755751 21.367367425 17.556912906
208 1 1 0.0 22.394755751 25.640840909 1.950767786
209 1 1 0.0 22.394755751 25.640840909 9.753840954
210 1 1 0.0 22.394755751 25.640840909 17.556912906
211 1 1 0.0 24.883063033 0.0 1.950767786
212 1 1 0.0 24.883063033 0.0 9.753840954
213 1 1 0.0 24.883063033 0.0 17.556912906
214 1 1 0.0 24.883063033 4.273473931 1.950767786
215 1 1 0.0 24.883063033 4.273473931 9.753840954
216 1 1 0.0 24.883063033 4.273473931 17.556912906
217 1 1 0.0 24.883063033 8.546947861 1.950767786
218 1 1 0.0 24.883063033 8.546947861 9.753840954
219 1 1 0.0 24.883063033 8.546947861 17.556912906
220 1 1 0.0 24.883063033 12.820420455 1.950767786
221 1 1 0.0 24.883063033 12.820420455 9.753840954
222 1 1 0.0 24.883063033 12.820420455 17.556912906
223 1 1 0.0 24.883063033 17.093895723 1.950767786
224 1 1 0.0 24.883063033 17.093895723 9.753840954
225 1 1 0.0 24.883063033 17.093895723 17.556912906
226 1 1 0.0 24.883063033 21.367367425 1.950767786
227 1 1 0.0 24.883063033 21.367367425 9.753840954
228 1 1 0.0 24.883063033 21.367367425 17.556912906
229 1 1 0.0 24.883063033 25.640840909 1.950767786
230 1 1 0.0 24.883063033 25.640840909 9.753840954
231 1 1 0.0 24.883063033 25.640840909 17.556912906
232 1 1 0.0 26.127215043 2.136736965 1.950767786
233 1 1 0.0 26.127215043 2.136736965 9.753840954
234 1 1 0.0 26.127215043 2.136736965 17.556912906
235 1 1 0.0 26.127215043 6.410210673 1.950767786
236 1 1 0.0 26.127215043 6.410210673 9.753840954
237 1 1 0.0 26.127215043 6.410210673 17.556912906
238 1 1 0.0 26.127215043 10.683684604 1.950767786
239 1 1 0.0 26.127215043 10.683684604 9.753840954
240 1 1 0.0 26.127215043 10.683684604 17.556912906
241 1 1 0.0 26.127215043 14.957157197 1.950767786
242 1 1 0.0 26.127215043 14.957157197 9.753840954
243 1 1 0.0 26.127215043 14.957157197 17.556912906
244 1 1 0.0 26.127215043 19.230631574 1.950767786
245 1 1 0.0 26.127215043 19.230631574 9.753840954
246 1 1 0.0 26.127215043 19.230631574 17.556912906
247 1 1 0.0 26.127215043 23.504103275 1.950767786
248 1 1 0.0 26.127215043 23.504103275 9.753840954
249 1 1 0.0 26.127215043 23.504103275 17.556912906
250 1 1 0.0 26.127215043 27.77757676 1.950767786
251 1 1 0.0 26.127215043 27.77757676 9.753840954
252 1 1 0.0 26.127215043 27.77757676 17.556912906
253 1 1 0.0 1.244152927 2.136736965 1.950767786
254 1 1 0.0 1.244152927 2.136736965 9.753840954
255 1 1 0.0 1.244152927 2.136736965 17.556912906
256 1 1 0.0 1.244152927 6.410210673 1.950767786
257 1 1 0.0 1.244152927 6.410210673 9.753840954
258 1 1 0.0 1.244152927 6.410210673 17.556912906
259 1 1 0.0 1.244152927 10.683684604 1.950767786
260 1 1 0.0 1.244152927 10.683684604 9.753840954
261 1 1 0.0 1.244152927 10.683684604 17.556912906
262 1 1 0.0 1.244152927 14.957157197 1.950767786
263 1 1 0.0 1.244152927 14.957157197 9.753840954
264 1 1 0.0 1.244152927 14.957157197 17.556912906
265 1 1 0.0 1.244152927 19.230631574 1.950767786
266 1 1 0.0 1.244152927 19.230631574 9.753840954
267 1 1 0.0 1.244152927 19.230631574 17.556912906
268 1 1 0.0 1.244152927 23.504103275 1.950767786
269 1 1 0.0 1.244152927 23.504103275 9.753840954
270 1 1 0.0 1.244152927 23.504103275 17.556912906
271 1 1 0.0 1.244152927 27.77757676 1.950767786
272 1 1 0.0 1.244152927 27.77757676 9.753840954
273 1 1 0.0 1.244152927 27.77757676 17.556912906
274 1 1 0.0 3.732458884 2.136736965 1.950767786
275 1 1 0.0 3.732458884 2.136736965 9.753840954
276 1 1 0.0 3.732458884 2.136736965 17.556912906
277 1 1 0.0 3.732458884 6.410210673 1.950767786
278 1 1 0.0 3.732458884 6.410210673 9.753840954
279 1 1 0.0 3.732458884 6.410210673 17.556912906
280 1 1 0.0 3.732458884 10.683684604 1.950767786
281 1 1 0.0 3.732458884 10.683684604 9.753840954
282 1 1 0.0 3.732458884 10.683684604 17.556912906
283 1 1 0.0 3.732458884 14.957157197 1.950767786
284 1 1 0.0 3.732458884 14.957157197 9.753840954
285 1 1 0.0 3.732458884 14.957157197 17.556912906
286 1 1 0.0 3.732458884 19.230631574 1.950767786
287 1 1 0.0 3.732458884 19.230631574 9.753840954
288 1 1 0.0 3.732458884 19.230631574 17.556912906
289 1 1 0.0 3.732458884 23.504103275 1.950767786
290 1 1 0.0 3.732458884 23.504103275 9.753840954
291 1 1 0.0 3.732458884 23.504103275 17.556912906
292 1 1 0.0 3.732458884 27.77757676 1.950767786
293 1 1 0.0 3.732458884 27.77757676 9.753840954
294 1 1 0.0 3.732458884 27.77757676 17.556912906
295 1 1 0.0 6.220764943 2.136736965 1.950767786
296 1 1 0.0 6.220764943 2.136736965 9.753840954
297 1 1 0.0 6.220764943 2.136736965 17.556912906
298 1 1 0.0 6.220764943 6.410210673 1.950767786
299 1 1 0.0 6.220764943 6.410210673 9.753840954
300 1 1 0.0 6.220764943 6.410210673 17.556912906
301 1 1 0.0 6.220764943 10.683684604 1.950767786
302 1 1 0.0 6.220764943 10.683684604 9.753840954
303 1 1 0.0 6.220764943 10.683684604 17.556912906
304 1 1 0.0 6.220764943 14.957157197 1.950767786
305 1 1 0.0 6.220764943 14.957157197 9.753840954
306 1 1 0.0 6.220764943 14.957157197 17.556912906
307 1 1 0.0 6.220764943 19.230631574 1.950767786
308 1 1 0.0 6.220764943 19.230631574 9.753840954
309 1 1 0.0 6.220764943 19.230631574 17.556912906
310 1 1 0.0 6.220764943 23.504103275 1.950767786
311 1 1 0.0 6.220764943 23.504103275 9.753840954
312 1 1 0.0 6.220764943 23.504103275 17.556912906
313 1 1 0.0 6.220764943 27.77757676 1.950767786
314 1 1 0.0 6.220764943 27.77757676 9.753840954
315 1 1 0.0 6.220764943 27.77757676 17.556912906
316 1 1 0.0 8.709071409 2.136736965 1.950767786
317 1 1 0.0 8.709071409 2.136736965 9.753840954
318 1 1 0.0 8.709071409 2.136736965 17.556912906
319 1 1 0.0 8.709071409 6.410210673 1.950767786
320 1 1 0.0 8.709071409 6.410210673 9.753840954
321 1 1 0.0 8.709071409 6.410210673 17.556912906
322 1 1 0.0 8.709071409 10.683684604 1.950767786
323 1 1 0.0 8.709071409 10.683684604 9.753840954
324 1 1 0.0 8.709071409 10.683684604 17.556912906
325 1 1 0.0 8.709071409 14.957157197 1.950767786
326 1 1 0.0 8.709071409 14.957157197 9.753840954
327 1 1 0.0 8.709071409 14.957157197 17.556912906
328 1 1 0.0 8.709071409 19.230631574 1.950767786
329 1 1 0.0 8.709071409 19.230631574 9.753840954
330 1 1 0.0 8.709071409 19.230631574 17.556912906
331 1 1 0.0 8.709071409 23.504103275 1.950767786
332 1 1 0.0 8.709071409 23.504103275 9.753840954
333 1 1 0.0 8.709071409 23.504103275 17.556912906
334 1 1 0.0 8.709071409 27.77757676 1.950767786
335 1 1 0.0 8.709071409 27.77757676 9.753840954
336 1 1 0.0 8.709071409 27.77757676 17.556912906
337 1 1 0.0 11.197378691 2.136736965 1.950767786
338 1 1 0.0 11.197378691 2.136736965 9.753840954
339 1 1 0.0 11.197378691 2.136736965 17.556912906
340 1 1 0.0 11.197378691 6.410210673 1.950767786
341 1 1 0.0 11.197378691 6.410210673 9.753840954
342 1 1 0.0 11.197378691 6.410210673 17.556912906
343 1 1 0.0 11.197378691 10.683684604 1.950767786
344 1 1 0.0 11.197378691 10.683684604 9.753840954
345 1 1 0.0 11.197378691 10.683684604 17.556912906
346 1 1 0.0 11.197378691 14.957157197 1.950767786
347 1 1 0.0 11.197378691 14.957157197 9.753840954
348 1 1 0.0 11.197378691 14.957157197 17.556912906
349 1 1 0.0 11.197378691 19.230631574 1.950767786
350 1 1 0.0 11.197378691 19.230631574 9.753840954
351 1 1 0.0 11.197378691 19.230631574 17.556912906
352 1 1 0.0 11.197378691 23.504103275 1.950767786
353 1 1 0.0 11.197378691 23.504103275 9.753840954
354 1 1 0.0 11.197378691 23.504103275 17.556912906
355 1 1 0.0 11.197378691 27.77757676 1.950767786
356 1 1 0.0 11.197378691 27.77757676 9.753840954
357 1 1 0.0 11.197378691 27.77757676 17.556912906
358 1 1 0.0 13.685683526 2.136736965 1.950767786
359 1 1 0.0 13.685683526 2.136736965 9.753840954
360 1 1 0.0 13.685683526 2.136736965 17.556912906
361 1 1 0.0 13.685683526 6.410210673 1.950767786
362 1 1 0.0 13.685683526 6.410210673 9.753840954
363 1 1 0.0 13.685683526 6.410210673 17.556912906
364 1 1 0.0 13.685683526 10.683684604 1.950767786
365 1 1 0.0 13.685683526 10.683684604 9.753840954
366 1 1 0.0 13.685683526 10.683684604 17.556912906
367 1 1 0.0 13.685683526 14.957157197 1.950767786
368 1 1 0.0 13.685683526 14.957157197 9.753840954
369 1 1 0.0 13.685683526 14.957157197 17.556912906
370 1 1 0.0 13.685683526 19.230631574 1.950767786
371 1 1 0.0 13.685683526 19.230631574 9.753840954
372 1 1 0.0 13.685683526 19.230631574 17.556912906
373 1 1 0.0 13.685683526 23.504103275 1.950767786
374 1 1 0.0 13.685683526 23.504103275 9.753840954
375 1 1 0.0 13.685683526 23.504103275 17.556912906
376 1 1 0.0 13.685683526 27.77757676 1.950767786
377 1 1 0.0 13.685683526 27.77757676 9.753840954
378 1 1 0.0 13.685683526 27.77757676 17.556912906
379 1 1 0.0 16.173989177 2.136736965 1.950767786
380 1 1 0.0 16.173989177 2.136736965 9.753840954
381 1 1 0.0 16.173989177 2.136736965 17.556912906
382 1 1 0.0 16.173989177 6.410210673 1.950767786
383 1 1 0.0 16.173989177 6.410210673 9.753840954
384 1 1 0.0 16.173989177 6.410210673 17.556912906
385 1 1 0.0 16.173989177 10.683684604 1.950767786
386 1 1 0.0 16.173989177 10.683684604 9.753840954
387 1 1 0.0 16.173989177 10.683684604 17.556912906
388 1 1 0.0 16.173989177 14.957157197 1.950767786
389 1 1 0.0 16.173989177 14.957157197 9.753840954
390 1 1 0.0 16.173989177 14.957157197 17.556912906
391 1 1 0.0 16.173989177 19.230631574 1.950767786
392 1 1 0.0 16.173989177 19.230631574 9.753840954
393 1 1 0.0 16.173989177 19.230631574 17.556912906
394 1 1 0.0 16.173989177 23.504103275 1.950767786
395 1 1 0.0 16.173989177 23.504103275 9.753840954
396 1 1 0.0 16.173989177 23.504103275 17.556912906
397 1 1 0.0 16.173989177 27.77757676 1.950767786
398 1 1 0.0 16.173989177 27.77757676 9.753840954
399 1 1 0.0 16.173989177 27.77757676 17.556912906
400 1 1 0.0 18.662296459 2.136736965 1.950767786
401 1 1 0.0 18.662296459 2.136736965 9.753840954
402 1 1 0.0 18.662296459 2.136736965 17.556912906
403 1 1 0.0 18.662296459 6.410210673 1.950767786
404 1 1 0.0 18.662296459 6.410210673 9.753840954
405 1 1 0.0 18.662296459 6.410210673 17.556912906
406 1 1 0.0 18.662296459 10.683684604 1.950767786
407 1 1 0.0 18.662296459 10.683684604 9.753840954
408 1 1 0.0 18.662296459 10.683684604 17.556912906
409 1 1 0.0 18.662296459 14.957157197 1.950767786
410 1 1 0.0 18.662296459 14.957157197 9.753840954
411 1 1 0.0 18.662296459 14.957157197 17.556912906
412 1 1 0.0 18.662296459 19.230631574 1.950767786
413 1 1 0.0 18.662296459 19.230631574 9.753840954
414 1 1 0.0 18.662296459 19.230631574 17.556912906
415 1 1 0.0 18.662296459 23.504103275 1.950767786
416 1 1 0.0 18.662296459 23.504103275 9.753840954
417 1 1 0.0 18.662296459 23.504103275 17.556912906
418 1 1 0.0 18.662296459 27.77757676 1.950767786
419 1 1 0.0 18.662296459 27.77757676 9.753840954
420 1 1 0.0 18.662296459 27.77757676 17.556912906
421 1 1 0.0 21.15060211 2.136736965 1.950767786
422 1 1 0.0 21.15060211 2.136736965 9.753840954
423 1 1 0.0 21.15060211 2.136736965 17.556912906
424 1 1 0.0 21.15060211 6.410210673 1.950767786
425 1 1 0.0 21.15060211 6.410210673 9.753840954
426 1 1 0.0 21.15060211 6.410210673 17.556912906
427 1 1 0.0 21.15060211 10.683684604 1.950767786
428 1 1 0.0 21.15060211 10.683684604 9.753840954
429 1 1 0.0 21.15060211 10.683684604 17.556912906
430 1 1 0.0 21.15060211 14.957157197 1.950767786
431 1 1 0.0 21.15060211 14.957157197 9.753840954
432 1 1 0.0 21.15060211 14.957157197 17.556912906
433 1 1 0.0 21.15060211 19.230631574 1.950767786
434 1 1 0.0 21.15060211 19.230631574 9.753840954
435 1 1 0.0 21.15060211 19.230631574 17.556912906
436 1 1 0.0 21.15060211 23.504103275 1.950767786
437 1 1 0.0 21.15060211 23.504103275 9.753840954
438 1 1 0.0 21.15060211 23.504103275 17.556912906
439 1 1 0.0 21.15060211 27.77757676 1.950767786
440 1 1 0.0 21.15060211 27.77757676 9.753840954
441 1 1 0.0 21.15060211 27.77757676 17.556912906
442 1 1 0.0 23.638909392 2.136736965 1.950767786
443 1 1 0.0 23.638909392 2.136736965 9.753840954
444 1 1 0.0 23.638909392 2.136736965 17.556912906
445 1 1 0.0 23.638909392 6.410210673 1.950767786
446 1 1 0.0 23.638909392 6.410210673 9.753840954
447 1 1 0.0 23.638909392 6.410210673 17.556912906
448 1 1 0.0 23.638909392 10.683684604 1.950767786
449 1 1 0.0 23.638909392 10.683684604 9.753840954
450 1 1 0.0 23.638909392 10.683684604 17.556912906
451 1 1 0.0 23.638909392 14.957157197 1.950767786
452 1 1 0.0 23.638909392 14.957157197 9.753840954
453 1 1 0.0 23.638909392 14.957157197 17.556912906
454 1 1 0.0 23.638909392 19.230631574 1.950767786
455 1 1 0.0 23.638909392 19.230631574 9.753840954
456 1 1 0.0 23.638909392 19.230631574 17.556912906
457 1 1 0.0 23.638909392 23.504103275 1.950767786
458 1 1 0.0 23.638909392 23.504103275 9.753840954
459 1 1 0.0 23.638909392 23.504103275 17.556912906
460 1 1 0.0 23.638909392 27.77757676 1.950767786
461 1 1 0.0 23.638909392 27.77757676 9.753840954
462 1 1 0.0 23.638909392 27.77757676 17.556912906
463 1 1 0.0 0.0 0.0 5.852303762
464 1 1 0.0 0.0 0.0 13.655374904
465 1 1 0.0 0.0 0.0 21.458447667
466 1 1 0.0 0.0 4.273473931 5.852303762
467 1 1 0.0 0.0 4.273473931 13.655374904
468 1 1 0.0 0.0 4.273473931 21.458447667
469 1 1 0.0 0.0 8.546947861 5.852303762
470 1 1 0.0 0.0 8.546947861 13.655374904
471 1 1 0.0 0.0 8.546947861 21.458447667
472 1 1 0.0 0.0 12.820420455 5.852303762
473 1 1 0.0 0.0 12.820420455 13.655374904
474 1 1 0.0 0.0 12.820420455 21.458447667
475 1 1 0.0 0.0 17.093895723 5.852303762
476 1 1 0.0 0.0 17.093895723 13.655374904
477 1 1 0.0 0.0 17.093895723 21.458447667
478 1 1 0.0 0.0 21.367367425 5.852303762
479 1 1 0.0 0.0 21.367367425 13.655374904
480 1 1 0.0 0.0 21.367367425 21.458447667
481 1 1 0.0 0.0 25.640840909 5.852303762
482 1 1 0.0 0.0 25.640840909 13.655374904
483 1 1 0.0 0.0 25.640840909 21.458447667
484 1 1 0.0 2.488305855 0.0 5.852303762
485 1 1 0.0 2.488305855 0.0 13.655374904
486 1 1 0.0 2.488305855 0.0 21.458447667
487 1 1 0.0 2.488305855 4.273473931 5.852303762
488 1 1 0.0 2.488305855 4.273473931 13.655374904
489 1 1 0.0 2.488305855 4.273473931 21.458447667
490 1 1 0.0 2.488305855 8.546947861 5.852303762
491 1 1 0.0 2.488305855 8.546947861 13.655374904
492 1 1 0.0 2.488305855 8.546947861 21.458447667
493 1 1 0.0 2.488305855 12.820420455 5.852303762
494 1 1 0.0 2.488305855 12.820420455 13.655374904
495 1 1 0.0 2.488305855 12.820420455 21.458447667
496 1 1 0.0 2.488305855 17.093895723 5.852303762
497 1 1 0.0 2.488305855 17.093895723 13.655374904
498 1 1 0.0 2.488305855 17.093895723 21.458447667
499 1 1 0.0 2.488305855 21.367367425 5.852303762
500 1 1 0.0 2.488305855 21.367367425 13.655374904
501 1 1 0.0 2.488305855 21.367367425 21.458447667
502 1 1 0.0 2.488305855 25.640840909 5.852303762
503 1 1 0.0 2.488305855 25.640840909 13.655374904
504 1 1 0.0 2.488305855 25.640840909 21.458447667
505 1 1 0.0 4.976612525 0.0 5.852303762
506 1 1 0.0 4.976612525 0.0 13.655374904
507 1 1 0.0 4.976612525 0.0 21.458447667
508 1 1 0.0 4.976612525 4.273473931 5.852303762
509 1 1 0.0 4.976612525 4.273473931 13.655374904
510 1 1 0.0 4.976612525 4.273473931 21.458447667
511 1 1 0.0 4.976612525 8.546947861 5.852303762
512 1 1 0.0 4.976612525 8.546947861 13.655374904
513 1 1 0.0 4.976612525 8.546947861 21.458447667
514 1 1 0.0 4.976612525 12.820420455 5.852303762
515 1 1 0.0 4.976612525 12.820420455 13.655374904
516 1 1 0.0 4.976612525 12.820420455 21.458447667
517 1 1 0.0 4.976612525 17.093895723 5.852303762
518 1 1 0.0 4.976612525 17.093895723 13.655374904
519 1 1 0.0 4.976612525 17.093895723 21.458447667
520 1 1 0.0 4.976612525 21.367367425 5.852303762
521 1 1 0.0 4.976612525 21.367367425 13.655374904
522 1 1 0.0 4.976612525 21.367367425 21.458447667
523 1 1 0.0 4.976612525 25.640840909 5.852303762
524 1 1 0.0 4.976612525 25.640840909 13.655374904
525 1 1 0.0 4.976612525 25.640840909 21.458447667
526 1 1 0.0 7.464918584 0.0 5.852303762
527 1 1 0.0 7.464918584 0.0 13.655374904
528 1 1 0.0 7.464918584 0.0 21.458447667
529 1 1 0.0 7.464918584 4.273473931 5.852303762
530 1 1 0.0 7.464918584 4.273473931 13.655374904
531 1 1 0.0 7.464918584 4.273473931 21.458447667
532 1 1 0.0 7.464918584 8.546947861 5.852303762
533 1 1 0.0 7.464918584 8.546947861 13.655374904
534 1 1 0.0 7.464918584 8.546947861 21.458447667
535 1 1 0.0 7.464918584 12.820420455 5.852303762
536 1 1 0.0 7.464918584 12.820420455 13.655374904
537 1 1 0.0 7.464918584 12.820420455 21.458447667
538 1 1 0.0 7.464918584 17.093895723 5.852303762
539 1 1 0.0 7.464918584 17.093895723 13.655374904
540 1 1 0.0 7.464918584 17.093895723 21.458447667
541 1 1 0.0 7.464918584 21.367367425 5.852303762
542 1 1 0.0 7.464918584 21.367367425 13.655374904
543 1 1 0.0 7.464918584 21.367367425 21.458447667
544 1 1 0.0 7.464918584 25.640840909 5.852303762
545 1 1 0.0 7.464918584 25.640840909 13.655374904
546 1 1 0.0 7.464918584 25.640840909 21.458447667
547 1 1 0.0 9.953224234 0.0 5.852303762
548 1 1 0.0 9.953224234 0.0 13.655374904
549 1 1 0.0 9.953224234 0.0 21.458447667
550 1 1 0.0 9.953224234 4.273473931 5.852303762
551 1 1 0.0 9.953224234 4.273473931 13.655374904
552 1 1 0.0 9.953224234 4.273473931 21.458447667
553 1 1 0.0 9.953224234 8.546947861 5.852303762
554 1 1 0.0 9.953224234 8.546947861 13.655374904
555 1 1 0.0 9.953224234 8.546947861 21.458447667
556 1 1 0.0 9.953224234 12.820420455 5.852303762
557 1 1 0.0 9.953224234 12.820420455 13.655374904
558 1 1 0.0 9.953224234 12.820420455 21.458447667
559 1 1 0.0 9.953224234 17.093895723 5.852303762
560 1 1 0.0 9.953224234 17.093895723 13.655374904
561 1 1 0.0 9.953224234 17.093895723 21.458447667
562 1 1 0.0 9.953224234 21.367367425 5.852303762
563 1 1 0.0 9.953224234 21.367367425 13.655374904
564 1 1 0.0 9.953224234 21.367367425 21.458447667
565 1 1 0.0 9.953224234 25.640840909 5.852303762
566 1 1 0.0 9.953224234 25.640840909 13.655374904
567 1 1 0.0 9.953224234 25.640840909 21.458447667
568 1 1 0.0 12.441531517 0.0 5.852303762
569 1 1 0.0 12.441531517 0.0 13.655374904
570 1 1 0.0 12.441531517 0.0 21.458447667
571 1 1 0.0 12.441531517 4.273473931 5.852303762
572 1 1 0.0 12.441531517 4.273473931 13.655374904
573 1 1 0.0 12.441531517 4.273473931 21.458447667
574 1 1 0.0 12.441531517 8.546947861 5.852303762
575 1 1 0.0 12.441531517 8.546947861 13.655374904
576 1 1 0.0 12.441531517 8.546947861 21.458447667
577 1 1 0.0 12.441531517 12.820420455 5.852303762
578 1 1 0.0 12.441531517 12.820420455 13.655374904
579 1 1 0.0 12.441531517 12.820420455 21.458447667
580 1 1 0.0 12.441531517 17.093895723 5.852303762
581 1 1 0.0 12.441531517 17.093895723 13.655374904
582 1 1 0.0 12.441531517 17.093895723 21.458447667
583 1 1 0.0 12.441531517 21.367367425 5.852303762
584 1 1 0.0 12.441531517 21.367367425 13.655374904
585 1 1 0.0 12.441531517 21.367367425 21.458447667
586 1 1 0.0 12.441531517 25.640840909 5.852303762
587 1 1 0.0 12.441531517 25.640840909 13.655374904
588 1 1 0.0 12.441531517 25.640840909 21.458447667
589 1 1 0.0 14.929837167 0.0 5.852303762
590 1 1 0.0 14.929837167 0.0 13.655374904
591 1 1 0.0 14.929837167 0.0 21.458447667
592 1 1 0.0 14.929837167 4.273473931 5.852303762
593 1 1 0.0 14.929837167 4.273473931 13.655374904
594 1 1 0.0 14.929837167 4.273473931 21.458447667
595 1 1 0.0 14.929837167 8.546947861 5.852303762
596 1 1 0.0 14.929837167 8.546947861 13.655374904
597 1 1 0.0 14.929837167 8.546947861 21.458447667
598 1 1 0.0 14.929837167 12.820420455 5.852303762
599 1 1 0.0 14.929837167 12.820420455 13.655374904
600 1 1 0.0 14.929837167 12.820420455 21.458447667
601 1 1 0.0 14.929837167 17.093895723 5.852303762
602 1 1 0.0 14.929837167 17.093895723 13.655374904
603 1 1 0.0 14.929837167 17.093895723 21.458447667
604 1 1 0.0 14.929837167 21.367367425 5.852303762
605 1 1 0.0 14.929837167 21.367367425 13.655374904
606 1 1 0.0 14.929837167 21.367367425 21.458447667
607 1 1 0.0 14.929837167 25.640840909 5.852303762
608 1 1 0.0 14.929837167 25.640840909 13.655374904
609 1 1 0.0 14.929837167 25.640840909 21.458447667
610 1 1 0.0 17.418142818 0.0 5.852303762
611 1 1 0.0 17.418142818 0.0 13.655374904
612 1 1 0.0 17.418142818 0.0 21.458447667
613 1 1 0.0 17.418142818 4.273473931 5.852303762
614 1 1 0.0 17.418142818 4.273473931 13.655374904
615 1 1 0.0 17.418142818 4.273473931 21.458447667
616 1 1 0.0 17.418142818 8.546947861 5.852303762
617 1 1 0.0 17.418142818 8.546947861 13.655374904
618 1 1 0.0 17.418142818 8.546947861 21.458447667
619 1 1 0.0 17.418142818 12.820420455 5.852303762