# LAMMPS data file written by Ovito Basic 3.0.0-dev791
816 atoms
2 atom types
0.0 17.8761329651 xlo xhi
0.0 17.8761329651 ylo yhi
0.0 28.0463848114 zlo zhi

Atoms  # charge

1 1 0.0 17.697372437 17.697372437 27.169933319
2 1 0.0 17.697372437 17.697372437 23.664134979
3 1 0.0 17.697372437 17.697372437 20.158336639
4 1 0.0 17.697372437 17.697372437 16.652540207
5 1 0.0 14.259652138 0.508782327 27.169933319
6 1 0.0 14.259652138 0.508782327 23.664134979
7 1 0.0 14.259652138 0.508782327 20.158336639
8 1 0.0 14.259652138 0.508782327 16.652540207
9 1 0.0 14.947196007 3.946499825 27.169933319
10 1 0.0 14.947196007 3.946499825 23.664134979
11 1 0.0 14.947196007 3.946499825 20.158336639
12 1 0.0 14.947196007 3.946499825 16.652540207
13 1 0.0 15.634738922 7.384217262 27.169933319
14 1 0.0 15.634738922 7.384217262 23.664134979
15 1 0.0 15.634738922 7.384217262 20.158336639
16 1 0.0 15.634738922 7.384217262 16.652540207
17 1 0.0 16.322282791 10.821935654 27.169933319
18 1 0.0 16.322282791 10.821935654 23.664134979
19 1 0.0 16.322282791 10.821935654 20.158336639
20 1 0.0 16.322282791 10.821935654 16.652540207
21 1 0.0 17.009828568 14.259652138 27.169933319
22 1 0.0 17.009828568 14.259652138 23.664134979
23 1 0.0 17.009828568 14.259652138 20.158336639
24 1 0.0 17.009828568 14.259652138 16.652540207
25 1 0.0 0.508782327 3.258956432 27.169933319
26 1 0.0 0.508782327 3.258956432 23.664134979
27 1 0.0 0.508782327 3.258956432 20.158336639
28 1 0.0 0.508782327 3.258956432 16.652540207
29 1 0.0 1.196325779 6.69667387 27.169933319
30 1 0.0 1.196325779 6.69667387 23.664134979
31 1 0.0 1.196325779 6.69667387 20.158336639
32 1 0.0 1.196325779 6.69667387 16.652540207
33 1 0.0 1.883869171 10.134389877 27.169933319
34 1 0.0 1.883869171 10.134389877 23.664134979
35 1 0.0 1.883869171 10.134389877 20.158336639
36 1 0.0 1.883869171 10.134389877 16.652540207
37 1 0.0 2.57141304 13.572109222 27.169933319
38 1 0.0 2.57141304 13.572109222 23.664134979
39 1 0.0 2.57141304 13.572109222 20.158336639
40 1 0.0 2.57141304 13.572109222 16.652540207
41 1 0.0 3.258956432 17.009828568 27.169933319
42 1 0.0 3.258956432 17.009828568 23.664134979
43 1 0.0 3.258956432 17.009828568 20.158336639
44 1 0.0 3.258956432 17.009828568 16.652540207
45 1 0.0 3.946499825 2.57141304 27.169933319
46 1 0.0 3.946499825 2.57141304 23.664134979
47 1 0.0 3.946499825 2.57141304 20.158336639
48 1 0.0 3.946499825 2.57141304 16.652540207
49 1 0.0 4.634043217 6.009130478 27.169933319
50 1 0.0 4.634043217 6.009130478 23.664134979
51 1 0.0 4.634043217 6.009130478 20.158336639
52 1 0.0 4.634043217 6.009130478 16.652540207
53 1 0.0 5.321587086 9.446847916 27.169933319
54 1 0.0 5.321587086 9.446847916 23.664134979
55 1 0.0 5.321587086 9.446847916 20.158336639
56 1 0.0 5.321587086 9.446847916 16.652540207
57 1 0.0 6.009130478 12.884565353 27.169933319
58 1 0.0 6.009130478 12.884565353 23.664134979
59 1 0.0 6.009130478 12.884565353 20.158336639
60 1 0.0 6.009130478 12.884565353 16.652540207
61 1 0.0 6.69667387 16.322282791 27.169933319
62 1 0.0 6.69667387 16.322282791 23.664134979
63 1 0.0 6.69667387 16.322282791 20.158336639
64 1 0.0 6.69667387 16.322282791 16.652540207
65 1 0.0 7.384217262 1.883869171 27.169933319
66 1 0.0 7.384217262 1.883869171 23.664134979
67 1 0.0 7.384217262 1.883869171 20.158336639
68 1 0.0 7.384217262 1.883869171 16.652540207
69 1 0.0 8.071761131 5.321587086 27.169933319
70 1 0.0 8.071761131 5.321587086 23.664134979
71 1 0.0 8.071761131 5.321587086 20.158336639
72 1 0.0 8.071761131 5.321587086 16.652540207
73 1 0.0 8.759304047 8.759304047 27.169933319
74 1 0.0 8.759304047 8.759304047 23.664134979
75 1 0.0 8.759304047 8.759304047 20.158336639
76 1 0.0 8.759304047 8.759304047 16.652540207
77 1 0.0 9.446847916 12.197022438 27.169933319
78 1 0.0 9.446847916 12.197022438 23.664134979
79 1 0.0 9.446847916 12.197022438 20.158336639
80 1 0.0 9.446847916 12.197022438 16.652540207
81 1 0.0 10.134389877 15.634738922 27.169933319
82 1 0.0 10.134389877 15.634738922 23.664134979
83 1 0.0 10.134389877 15.634738922 20.158336639
84 1 0.0 10.134389877 15.634738922 16.652540207
85 1 0.0 10.821935654 1.196325779 27.169933319
86 1 0.0 10.821935654 1.196325779 23.664134979
87 1 0.0 10.821935654 1.196325779 20.158336639
88 1 0.0 10.821935654 1.196325779 16.652540207
89 1 0.0 11.509478569 4.634043217 27.169933319
90 1 0.0 11.509478569 4.634043217 23.664134979
91 1 0.0 11.509478569 4.634043217 20.158336639
92 1 0.0 11.509478569 4.634043217 16.652540207
93 1 0.0 12.197022438 8.071761131 27.169933319
94 1 0.0 12.197022438 8.071761131 23.664134979
95 1 0.0 12.197022438 8.071761131 20.158336639
96 1 0.0 12.197022438 8.071761131 16.652540207
97 1 0.0 12.884565353 11.509478569 27.169933319
98 1 0.0 12.884565353 11.509478569 23.664134979
99 1 0.0 12.884565353 11.509478569 20.158336639
100 1 0.0 12.884565353 11.509478569 16.652540207
101 1 0.0 13.572109222 14.947196007 27.169933319
102 1 0.0 13.572109222 14.947196007 23.664134979
103 1 0.0 13.572109222 14.947196007 20.158336639
104 1 0.0 13.572109222 14.947196007 16.652540207
105 1 0.0 0.165010482 1.540097356 25.417034149
106 1 0.0 0.165010482 1.540097356 21.911235809
107 1 0.0 0.165010482 1.540097356 18.405437469
108 1 0.0 0.165010482 1.540097356 14.899640083
109 1 0.0 14.603423119 2.227641106 25.417034149
110 1 0.0 14.603423119 2.227641106 21.911235809
111 1 0.0 14.603423119 2.227641106 18.405437469
112 1 0.0 14.603423119 2.227641106 14.899640083
113 1 0.0 15.290968895 5.665358543 25.417034149
114 1 0.0 15.290968895 5.665358543 21.911235809
115 1 0.0 15.290968895 5.665358543 18.405437469
116 1 0.0 15.290968895 5.665358543 14.899640083
117 1 0.0 15.97851181 9.103075981 25.417034149
118 1 0.0 15.97851181 9.103075981 21.911235809
119 1 0.0 15.97851181 9.103075981 18.405437469
120 1 0.0 15.97851181 9.103075981 14.899640083
121 1 0.0 16.666057587 12.540794373 25.417034149
122 1 0.0 16.666057587 12.540794373 21.911235809
123 1 0.0 16.666057587 12.540794373 18.405437469
124 1 0.0 16.666057587 12.540794373 14.899640083
125 1 0.0 17.353599548 15.97851181 25.417034149
126 1 0.0 17.353599548 15.97851181 21.911235809
127 1 0.0 17.353599548 15.97851181 18.405437469
128 1 0.0 17.353599548 15.97851181 14.899640083
129 1 0.0 0.852554083 4.977814674 25.417034149
130 1 0.0 0.852554083 4.977814674 21.911235809
131 1 0.0 0.852554083 4.977814674 18.405437469
132 1 0.0 0.852554083 4.977814674 14.899640083
133 1 0.0 1.540097356 8.415533066 25.417034149
134 1 0.0 1.540097356 8.415533066 21.911235809
135 1 0.0 1.540097356 8.415533066 18.405437469
136 1 0.0 1.540097356 8.415533066 14.899640083
137 1 0.0 2.227641106 11.853250504 25.417034149
138 1 0.0 2.227641106 11.853250504 21.911235809
139 1 0.0 2.227641106 11.853250504 18.405437469
140 1 0.0 2.227641106 11.853250504 14.899640083
141 1 0.0 2.915184736 15.290968895 25.417034149
142 1 0.0 2.915184736 15.290968895 21.911235809
143 1 0.0 2.915184736 15.290968895 18.405437469
144 1 0.0 2.915184736 15.290968895 14.899640083
145 1 0.0 3.602728128 0.852553725 25.417034149
146 1 0.0 3.602728128 0.852553725 21.911235809
147 1 0.0 3.602728128 0.852553725 18.405437469
148 1 0.0 3.602728128 0.852553725 14.899640083
149 1 0.0 4.290271759 4.290271759 25.417034149
150 1 0.0 4.290271759 4.290271759 21.911235809
151 1 0.0 4.290271759 4.290271759 18.405437469
152 1 0.0 4.290271759 4.290271759 14.899640083
153 1 0.0 4.977815151 7.727989674 25.417034149
154 1 0.0 4.977815151 7.727989674 21.911235809
155 1 0.0 4.977815151 7.727989674 18.405437469
156 1 0.0 4.977815151 7.727989674 14.899640083
157 1 0.0 5.66535902 11.165707588 25.417034149
158 1 0.0 5.66535902 11.165707588 21.911235809
159 1 0.0 5.66535902 11.165707588 18.405437469
160 1 0.0 5.66535902 11.165707588 14.899640083
161 1 0.0 6.352901936 14.603423119 25.417034149
162 1 0.0 6.352901936 14.603423119 21.911235809
163 1 0.0 6.352901936 14.603423119 18.405437469
164 1 0.0 6.352901936 14.603423119 14.899640083
165 1 0.0 7.040445805 0.165009648 25.417034149
166 1 0.0 7.040445805 0.165009648 21.911235809
167 1 0.0 7.040445805 0.165009648 18.405437469
168 1 0.0 7.040445805 0.165009648 14.899640083
169 1 0.0 7.727989674 3.602728128 25.417034149
170 1 0.0 7.727989674 3.602728128 21.911235809
171 1 0.0 7.727989674 3.602728128 18.405437469
172 1 0.0 7.727989674 3.602728128 14.899640083
173 1 0.0 8.415533066 7.040445805 25.417034149
174 1 0.0 8.415533066 7.040445805 21.911235809
175 1 0.0 8.415533066 7.040445805 18.405437469
176 1 0.0 8.415533066 7.040445805 14.899640083
177 1 0.0 9.103075981 10.478162766 25.417034149
178 1 0.0 9.103075981 10.478162766 21.911235809
179 1 0.0 9.103075981 10.478162766 18.405437469
180 1 0.0 9.103075981 10.478162766 14.899640083
181 1 0.0 9.790618896 13.915881157 25.417034149
182 1 0.0 9.790618896 13.915881157 21.911235809
183 1 0.0 9.790618896 13.915881157 18.405437469
184 1 0.0 9.790618896 13.915881157 14.899640083
185 1 0.0 10.478162766 17.353599548 25.417034149
186 1 0.0 10.478162766 17.353599548 21.911235809
187 1 0.0 10.478162766 17.353599548 18.405437469
188 1 0.0 10.478162766 17.353599548 14.899640083
189 1 0.0 11.165707588 2.915184736 25.417034149
190 1 0.0 11.165707588 2.915184736 21.911235809
191 1 0.0 11.165707588 2.915184736 18.405437469
192 1 0.0 11.165707588 2.915184736 14.899640083
193 1 0.0 11.853250504 6.352901936 25.417034149
194 1 0.0 11.853250504 6.352901936 21.911235809
195 1 0.0 11.853250504 6.352901936 18.405437469
196 1 0.0 11.853250504 6.352901936 14.899640083
197 1 0.0 12.540794373 9.790618896 25.417034149
198 1 0.0 12.540794373 9.790618896 21.911235809
199 1 0.0 12.540794373 9.790618896 18.405437469
200 1 0.0 12.540794373 9.790618896 14.899640083
201 1 0.0 13.228337288 13.228337288 25.417034149
202 1 0.0 13.228337288 13.228337288 21.911235809
203 1 0.0 13.228337288 13.228337288 18.405437469
204 1 0.0 13.228337288 13.228337288 14.899640083
205 1 0.0 13.915881157 16.666057587 25.417034149
206 1 0.0 13.915881157 16.666057587 21.911235809
207 1 0.0 13.915881157 16.666057587 18.405437469
208 1 0.0 13.915881157 16.666057587 14.899640083
209 1 0.0 1.540097356 17.353599548 25.417034149
210 1 0.0 1.540097356 17.353599548 21.911235809
211 1 0.0 1.540097356 17.353599548 18.405437469
212 1 0.0 1.540097356 17.353599548 14.899640083
213 1 0.0 15.97851181 0.165009648 25.417034149
214 1 0.0 15.97851181 0.165009648 21.911235809
215 1 0.0 15.97851181 0.165009648 18.405437469
216 1 0.0 15.97851181 0.165009648 14.899640083
217 1 0.0 16.666057587 3.602727652 25.417034149
218 1 0.0 16.666057587 3.602727652 21.911235809
219 1 0.0 16.666057587 3.602727652 18.405437469
220 1 0.0 16.666057587 3.602727652 14.899640083
221 1 0.0 17.353599548 7.040445328 25.417034149
222 1 0.0 17.353599548 7.040445328 21.911235809
223 1 0.0 17.353599548 7.040445328 18.405437469
224 1 0.0 17.353599548 7.040445328 14.899640083
225 1 0.0 0.165009648 10.478162766 25.417034149
226 1 0.0 0.165009648 10.478162766 21.911235809
227 1 0.0 0.165009648 10.478162766 18.405437469
228 1 0.0 0.165009648 10.478162766 14.899640083
229 1 0.0 0.852553725 13.91587925 25.417034149
230 1 0.0 0.852553725 13.91587925 21.911235809
231 1 0.0 0.852553725 13.91587925 18.405437469
232 1 0.0 0.852553725 13.91587925 14.899640083
233 1 0.0 2.227641106 2.915183306 25.417034149
234 1 0.0 2.227641106 2.915183306 21.911235809
235 1 0.0 2.227641106 2.915183306 18.405437469
236 1 0.0 2.227641106 2.915183306 14.899640083
237 1 0.0 2.915184736 6.352901459 25.417034149
238 1 0.0 2.915184736 6.352901459 21.911235809
239 1 0.0 2.915184736 6.352901459 18.405437469
240 1 0.0 2.915184736 6.352901459 14.899640083
241 1 0.0 3.602728128 9.790618896 25.417034149
242 1 0.0 3.602728128 9.790618896 21.911235809
243 1 0.0 3.602728128 9.790618896 18.405437469
244 1 0.0 3.602728128 9.790618896 14.899640083
245 1 0.0 4.290271759 13.228337288 25.417034149
246 1 0.0 4.290271759 13.228337288 21.911235809
247 1 0.0 4.290271759 13.228337288 18.405437469
248 1 0.0 4.290271759 13.228337288 14.899640083
249 1 0.0 4.977814674 16.666057587 25.417034149
250 1 0.0 4.977814674 16.666057587 21.911235809
251 1 0.0 4.977814674 16.666057587 18.405437469
252 1 0.0 4.977814674 16.666057587 14.899640083
253 1 0.0 5.665358543 2.227641821 25.417034149
254 1 0.0 5.665358543 2.227641821 21.911235809
255 1 0.0 5.665358543 2.227641821 18.405437469
256 1 0.0 5.665358543 2.227641821 14.899640083
257 1 0.0 6.352901936 5.665359497 25.417034149
258 1 0.0 6.352901936 5.665359497 21.911235809
259 1 0.0 6.352901936 5.665359497 18.405437469
260 1 0.0 6.352901936 5.665359497 14.899640083
261 1 0.0 7.040445805 9.103075981 25.417034149
262 1 0.0 7.040445805 9.103075981 21.911235809
263 1 0.0 7.040445805 9.103075981 18.405437469
264 1 0.0 7.040445805 9.103075981 14.899640083
265 1 0.0 7.727989674 12.540793419 25.417034149
266 1 0.0 7.727989674 12.540793419 21.911235809
267 1 0.0 7.727989674 12.540793419 18.405437469
268 1 0.0 7.727989674 12.540793419 14.899640083
269 1 0.0 8.415533066 15.97851181 25.417034149
270 1 0.0 8.415533066 15.97851181 21.911235809
271 1 0.0 8.415533066 15.97851181 18.405437469
272 1 0.0 8.415533066 15.97851181 14.899640083
273 1 0.0 9.103075981 1.540097594 25.417034149
274 1 0.0 9.103075981 1.540097594 21.911235809
275 1 0.0 9.103075981 1.540097594 18.405437469
276 1 0.0 9.103075981 1.540097594 14.899640083
277 1 0.0 9.790618896 4.977815151 25.417034149
278 1 0.0 9.790618896 4.977815151 21.911235809
279 1 0.0 9.790618896 4.977815151 18.405437469
280 1 0.0 9.790618896 4.977815151 14.899640083
281 1 0.0 10.478162766 8.415532112 25.417034149
282 1 0.0 10.478162766 8.415532112 21.911235809
283 1 0.0 10.478162766 8.415532112 18.405437469
284 1 0.0 10.478162766 8.415532112 14.899640083
285 1 0.0 11.165707588 11.85324955 25.417034149
286 1 0.0 11.165707588 11.85324955 21.911235809
287 1 0.0 11.165707588 11.85324955 18.405437469
288 1 0.0 11.165707588 11.85324955 14.899640083
289 1 0.0 11.853250504 15.290966034 25.417034149
290 1 0.0 11.853250504 15.290966034 21.911235809
291 1 0.0 11.853250504 15.290966034 18.405437469
292 1 0.0 11.853250504 15.290966034 14.899640083
293 1 0.0 12.540794373 0.852553725 25.417034149
294 1 0.0 12.540794373 0.852553725 21.911235809
295 1 0.0 12.540794373 0.852553725 18.405437469
296 1 0.0 12.540794373 0.852553725 14.899640083
297 1 0.0 13.228337288 4.290271759 25.417034149
298 1 0.0 13.228337288 4.290271759 21.911235809
299 1 0.0 13.228337288 4.290271759 18.405437469
300 1 0.0 13.228337288 4.290271759 14.899640083
301 1 0.0 13.915881157 7.727989674 25.417034149
302 1 0.0 13.915881157 7.727989674 21.911235809
303 1 0.0 13.915881157 7.727989674 18.405437469
304 1 0.0 13.915881157 7.727989674 14.899640083
305 1 0.0 14.603423119 11.165707588 25.417034149
306 1 0.0 14.603423119 11.165707588 21.911235809
307 1 0.0 14.603423119 11.165707588 18.405437469
308 1 0.0 14.603423119 11.165707588 14.899640083
309 1 0.0 15.290968895 14.603425026 25.417034149
310 1 0.0 15.290968895 14.603425026 21.911235809
311 1 0.0 15.290968895 14.603425026 18.405437469
312 1 0.0 15.290968895 14.603425026 14.899640083
313 1 0.0 1.883869171 1.196325779 27.169933319
314 1 0.0 1.883869171 1.196325779 23.664134979
315 1 0.0 1.883869171 1.196325779 20.158336639
316 1 0.0 1.883869171 1.196325779 16.652540207
317 1 0.0 16.322282791 1.88386941 27.169933319
318 1 0.0 16.322282791 1.88386941 23.664134979
319 1 0.0 16.322282791 1.88386941 20.158336639
320 1 0.0 16.322282791 1.88386941 16.652540207
321 1 0.0 17.009828568 5.321587086 27.169933319
322 1 0.0 17.009828568 5.321587086 23.664134979
323 1 0.0 17.009828568 5.321587086 20.158336639
324 1 0.0 17.009828568 5.321587086 16.652540207
325 1 0.0 17.697372437 8.759304047 27.169933319
326 1 0.0 17.697372437 8.759304047 23.664134979
327 1 0.0 17.697372437 8.759304047 20.158336639
328 1 0.0 17.697372437 8.759304047 16.652540207
329 1 0.0 0.508782685 12.197022438 27.169933319
330 1 0.0 0.508782685 12.197022438 23.664134979
331 1 0.0 0.508782685 12.197022438 20.158336639
332 1 0.0 0.508782685 12.197022438 16.652540207
333 1 0.0 1.196324468 15.634738922 27.169933319
334 1 0.0 1.196324468 15.634738922 23.664134979
335 1 0.0 1.196324468 15.634738922 20.158336639
336 1 0.0 1.196324468 15.634738922 16.652540207
337 1 0.0 2.57141304 4.634043217 27.169933319
338 1 0.0 2.57141304 4.634043217 23.664134979
339 1 0.0 2.57141304 4.634043217 20.158336639
340 1 0.0 2.57141304 4.634043217 16.652540207
341 1 0.0 3.258956432 8.071761131 27.169933319
342 1 0.0 3.258956432 8.071761131 23.664134979
343 1 0.0 3.258956432 8.071761131 20.158336639
344 1 0.0 3.258956432 8.071761131 16.652540207
345 1 0.0 3.946499825 11.509478569 27.169933319
346 1 0.0 3.946499825 11.509478569 23.664134979
347 1 0.0 3.946499825 11.509478569 20.158336639
348 1 0.0 3.946499825 11.509478569 16.652540207
349 1 0.0 4.634043217 14.947196007 27.169933319
350 1 0.0 4.634043217 14.947196007 23.664134979
351 1 0.0 4.634043217 14.947196007 20.158336639
352 1 0.0 4.634043217 14.947196007 16.652540207
353 1 0.0 5.321587086 0.508782685 27.169933319
354 1 0.0 5.321587086 0.508782685 23.664134979
355 1 0.0 5.321587086 0.508782685 20.158336639
356 1 0.0 5.321587086 0.508782685 16.652540207
357 1 0.0 6.009130478 3.946500301 27.169933319
358 1 0.0 6.009130478 3.946500301 23.664134979
359 1 0.0 6.009130478 3.946500301 20.158336639
360 1 0.0 6.009130478 3.946500301 16.652540207
361 1 0.0 6.69667387 7.384217262 27.169933319
362 1 0.0 6.69667387 7.384217262 23.664134979
363 1 0.0 6.69667387 7.384217262 20.158336639
364 1 0.0 6.69667387 7.384217262 16.652540207
365 1 0.0 7.384217262 10.821935654 27.169933319
366 1 0.0 7.384217262 10.821935654 23.664134979
367 1 0.0 7.384217262 10.821935654 20.158336639
368 1 0.0 7.384217262 10.821935654 16.652540207
369 1 0.0 8.071761131 14.259652138 27.169933319
370 1 0.0 8.071761131 14.259652138 23.664134979
371 1 0.0 8.071761131 14.259652138 20.158336639
372 1 0.0 8.071761131 14.259652138 16.652540207
373 1 0.0 8.759304047 17.697372437 27.169933319
374 1 0.0 8.759304047 17.697372437 23.664134979
375 1 0.0 8.759304047 17.697372437 20.158336639
376 1 0.0 8.759304047 17.697372437 16.652540207
377 1 0.0 9.446847916 3.258956432 27.169933319
378 1 0.0 9.446847916 3.258956432 23.664134979
379 1 0.0 9.446847916 3.258956432 20.158336639
380 1 0.0 9.446847916 3.258956432 16.652540207
381 1 0.0 10.134389877 6.69667387 27.169933319
382 1 0.0 10.134389877 6.69667387 23.664134979
383 1 0.0 10.134389877 6.69667387 20.158336639
384 1 0.0 10.134389877 6.69667387 16.652540207
385 1 0.0 10.821935654 10.134389877 27.169933319
386 1 0.0 10.821935654 10.134389877 23.664134979
387 1 0.0 10.821935654 10.134389877 20.158336639
388 1 0.0 10.821935654 10.134389877 16.652540207
389 1 0.0 11.509479523 13.572109222 27.169933319
390 1 0.0 11.509479523 13.572109222 23.664134979
391 1 0.0 11.509479523 13.572109222 20.158336639
392 1 0.0 11.509479523 13.572109222 16.652540207
393 1 0.0 12.197022438 17.009828568 27.169933319
394 1 0.0 12.197022438 17.009828568 23.664134979
395 1 0.0 12.197022438 17.009828568 20.158336639
396 1 0.0 12.197022438 17.009828568 16.652540207
397 1 0.0 12.884566307 2.57141304 27.169933319
398 1 0.0 12.884566307 2.57141304 23.664134979
399 1 0.0 12.884566307 2.57141304 20.158336639
400 1 0.0 12.884566307 2.57141304 16.652540207
401 1 0.0 13.572109222 6.009130478 27.169933319
402 1 0.0 13.572109222 6.009130478 23.664134979
403 1 0.0 13.572109222 6.009130478 20.158336639
404 1 0.0 13.572109222 6.009130478 16.652540207
405 1 0.0 14.259652138 9.446847916 27.169933319
406 1 0.0 14.259652138 9.446847916 23.664134979
407 1 0.0 14.259652138 9.446847916 20.158336639
408 1 0.0 14.259652138 9.446847916 16.652540207
409 1 0.0 14.947196007 12.884565353 27.169933319
410 1 0.0 14.947196007 12.884565353 23.664134979
411 1 0.0 14.947196007 12.884565353 20.158336639
412 1 0.0 14.947196007 12.884565353 16.652540207
413 1 0.0 15.634740829 16.322282791 27.169933319
414 1 0.0 15.634740829 16.322282791 23.664134979
415 1 0.0 15.634740829 16.322282791 20.158336639
416 1 0.0 15.634740829 16.322282791 16.652540207
417 2 0.0 17.702562332 17.702562332 0.876449466
418 2 0.0 17.702562332 17.702562332 4.382246971
419 2 0.0 17.702562332 17.702562332 7.888044834
420 2 0.0 17.702562332 17.702562332 11.393842697
421 2 0.0 17.702562332 3.505798101 0.876449466
422 2 0.0 17.702562332 3.505798101 4.382246971
423 2 0.0 17.702562332 3.505798101 7.888044834
424 2 0.0 17.702562332 3.505798101 11.393842697
425 2 0.0 17.702562332 7.011596203 0.876449466
426 2 0.0 17.702562332 7.011596203 4.382246971
427 2 0.0 17.702562332 7.011596203 7.888044834
428 2 0.0 17.702562332 7.011596203 11.393842697
429 2 0.0 17.702562332 10.517394066 0.876449466
430 2 0.0 17.702562332 10.517394066 4.382246971
431 2 0.0 17.702562332 10.517394066 7.888044834
432 2 0.0 17.702562332 10.517394066 11.393842697
433 2 0.0 17.702562332 14.023192406 0.876449466
434 2 0.0 17.702562332 14.023192406 4.382246971
435 2 0.0 17.702562332 14.023192406 7.888044834
436 2 0.0 17.702562332 14.023192406 11.393842697
437 2 0.0 3.505798101 17.702562332 0.876449466
438 2 0.0 3.505798101 17.702562332 4.382246971
439 2 0.0 3.505798101 17.702562332 7.888044834
440 2 0.0 3.505798101 17.702562332 11.393842697
441 2 0.0 3.505798101 3.505798101 0.876449466
442 2 0.0 3.505798101 3.505798101 4.382246971
443 2 0.0 3.505798101 3.505798101 7.888044834
444 2 0.0 3.505798101 3.505798101 11.393842697
445 2 0.0 3.505798101 7.011596203 0.876449466
446 2 0.0 3.505798101 7.011596203 4.382246971
447 2 0.0 3.505798101 7.011596203 7.888044834
448 2 0.0 3.505798101 7.011596203 11.393842697
449 2 0.0 3.505798101 10.517394066 0.876449466
450 2 0.0 3.505798101 10.517394066 4.382246971
451 2 0.0 3.505798101 10.517394066 7.888044834
452 2 0.0 3.505798101 10.517394066 11.393842697
453 2 0.0 3.505798101 14.023192406 0.876449466
454 2 0.0 3.505798101 14.023192406 4.382246971
455 2 0.0 3.505798101 14.023192406 7.888044834
456 2 0.0 3.505798101 14.023192406 11.393842697
457 2 0.0 7.011596203 17.702562332 0.876449466
458 2 0.0 7.011596203 17.702562332 4.382246971
459 2 0.0 7.011596203 17.702562332 7.888044834
460 2 0.0 7.011596203 17.702562332 11.393842697
461 2 0.0 7.011596203 3.505798101 0.876449466
462 2 0.0 7.011596203 3.505798101 4.382246971
463 2 0.0 7.011596203 3.505798101 7.888044834
464 2 0.0 7.011596203 3.505798101 11.393842697
465 2 0.0 7.011596203 7.011596203 0.876449466
466 2 0.0 7.011596203 7.011596203 4.382246971
467 2 0.0 7.011596203 7.011596203 7.888044834
468 2 0.0 7.011596203 7.011596203 11.393842697
469 2 0.0 7.011596203 10.517394066 0.876449466
470 2 0.0 7.011596203 10.517394066 4.382246971
471 2 0.0 7.011596203 10.517394066 7.888044834
472 2 0.0 7.011596203 10.517394066 11.393842697
473 2 0.0 7.011596203 14.023192406 0.876449466
474 2 0.0 7.011596203 14.023192406 4.382246971
475 2 0.0 7.011596203 14.023192406 7.888044834
476 2 0.0 7.011596203 14.023192406 11.393842697
477 2 0.0 10.517394066 17.702562332 0.876449466
478 2 0.0 10.517394066 17.702562332 4.382246971
479 2 0.0 10.517394066 17.702562332 7.888044834
480 2 0.0 10.517394066 17.702562332 11.393842697
481 2 0.0 10.517394066 3.505798101 0.876449466
482 2 0.0 10.517394066 3.505798101 4.382246971
483 2 0.0 10.517394066 3.505798101 7.888044834
484 2 0.0 10.517394066 3.505798101 11.393842697
485 2 0.0 10.517394066 7.011596203 0.876449466
486 2 0.0 10.517394066 7.011596203 4.382246971
487 2 0.0 10.517394066 7.011596203 7.888044834
488 2 0.0 10.517394066 7.011596203 11.393842697
489 2 0.0 10.517394066 10.517394066 0.876449466
490 2 0.0 10.517394066 10.517394066 4.382246971
491 2 0.0 10.517394066 10.517394066 7.888044834
492 2 0.0 10.517394066 10.517394066 11.393842697
493 2 0.0 10.517394066 14.023192406 0.876449466
494 2 0.0 10.517394066 14.023192406 4.382246971
495 2 0.0 10.517394066 14.023192406 7.888044834
496 2 0.0 10.517394066 14.023192406 11.393842697
497 2 0.0 14.023192406 17.702562332 0.876449466
498 2 0.0 14.023192406 17.702562332 4.382246971
499 2 0.0 14.023192406 17.702562332 7.888044834
500 2 0.0 14.023192406 17.702562332 11.393842697
501 2 0.0 14.023192406 3.505798101 0.876449466
502 2 0.0 14.023192406 3.505798101 4.382246971
503 2 0.0 14.023192406 3.505798101 7.888044834
504 2 0.0 14.023192406 3.505798101 11.393842697
505 2 0.0 14.023192406 7.011596203 0.876449466
506 2 0.0 14.023192406 7.011596203 4.382246971
507 2 0.0 14.023192406 7.011596203 7.888044834
508 2 0.0 14.023192406 7.011596203 11.393842697
509 2 0.0 14.023192406 10.517394066 0.876449466
510 2 0.0 14.023192406 10.517394066 4.382246971
511 2 0.0 14.023192406 10.517394066 7.888044834
512 2 0.0 14.023192406 10.517394066 11.393842697
513 2 0.0 14.023192406 14.023192406 0.876449466
514 2 0.0 14.023192406 14.023192406 4.382246971
515 2 0.0 14.023192406 14.023192406 7.888044834
516 2 0.0 14.023192406 14.023192406 11.393842697
517 2 0.0 17.702562332 1.752899051 2.629348278
518 2 0.0 17.702562332 1.752899051 6.135146141
519 2 0.0 17.702562332 1.752899051 9.640943527
520 2 0.0 17.702562332 1.752899051 13.146741867
521 2 0.0 17.702562332 5.258697033 2.629348278
522 2 0.0 17.702562332 5.258697033 6.135146141
523 2 0.0 17.702562332 5.258697033 9.640943527
524 2 0.0 17.702562332 5.258697033 13.146741867
525 2 0.0 17.702562332 8.76449585 2.629348278
526 2 0.0 17.702562332 8.76449585 6.135146141
527 2 0.0 17.702562332 8.76449585 9.640943527
528 2 0.0 17.702562332 8.76449585 13.146741867
529 2 0.0 17.702562332 12.270294189 2.629348278
530 2 0.0 17.702562332 12.270294189 6.135146141
531 2 0.0 17.702562332 12.270294189 9.640943527
532 2 0.0 17.702562332 12.270294189 13.146741867
533 2 0.0 17.702562332 15.776092529 2.629348278
534 2 0.0 17.702562332 15.776092529 6.135146141
535 2 0.0 17.702562332 15.776092529 9.640943527
536 2 0.0 17.702562332 15.776092529 13.146741867
537 2 0.0 3.505798101 1.752899051 2.629348278
538 2 0.0 3.505798101 1.752899051 6.135146141
539 2 0.0 3.505798101 1.752899051 9.640943527
540 2 0.0 3.505798101 1.752899051 13.146741867
541 2 0.0 3.505798101 5.258697033 2.629348278
542 2 0.0 3.505798101 5.258697033 6.135146141
543 2 0.0 3.505798101 5.258697033 9.640943527
544 2 0.0 3.505798101 5.258697033 13.146741867
545 2 0.0 3.505798101 8.76449585 2.629348278
546 2 0.0 3.505798101 8.76449585 6.135146141
547 2 0.0 3.505798101 8.76449585 9.640943527
548 2 0.0 3.505798101 8.76449585 13.146741867
549 2 0.0 3.505798101 12.270294189 2.629348278
550 2 0.0 3.505798101 12.270294189 6.135146141
551 2 0.0 3.505798101 12.270294189 9.640943527
552 2 0.0 3.505798101 12.270294189 13.146741867
553 2 0.0 3.505798101 15.776092529 2.629348278
554 2 0.0 3.505798101 15.776092529 6.135146141
555 2 0.0 3.505798101 15.776092529 9.640943527
556 2 0.0 3.505798101 15.776092529 13.146741867
557 2 0.0 7.011596203 1.752899051 2.629348278
558 2 0.0 7.011596203 1.752899051 6.135146141
559 2 0.0 7.011596203 1.752899051 9.640943527
560 2 0.0 7.011596203 1.752899051 13.146741867
561 2 0.0 7.011596203 5.258697033 2.629348278
562 2 0.0 7.011596203 5.258697033 6.135146141
563 2 0.0 7.011596203 5.258697033 9.640943527
564 2 0.0 7.011596203 5.258697033 13.146741867
565 2 0.0 7.011596203 8.76449585 2.629348278
566 2 0.0 7.011596203 8.76449585 6.135146141
567 2 0.0 7.011596203 8.76449585 9.640943527
568 2 0.0 7.011596203 8.76449585 13.146741867
569 2 0.0 7.011596203 12.270294189 2.629348278
570 2 0.0 7.011596203 12.270294189 6.135146141
571 2 0.0 7.011596203 12.270294189 9.640943527
572 2 0.0 7.011596203 12.270294189 13.146741867
573 2 0.0 7.011596203 15.776092529 2.629348278
574 2 0.0 7.011596203 15.776092529 6.135146141
575 2 0.0 7.011596203 15.776092529 9.640943527
576 2 0.0 7.011596203 15.776092529 13.146741867
577 2 0.0 10.517394066 1.752899051 2.629348278
578 2 0.0 10.517394066 1.752899051 6.135146141
579 2 0.0 10.517394066 1.752899051 9.640943527
580 2 0.0 10.517394066 1.752899051 13.146741867
581 2 0.0 10.517394066 5.258697033 2.629348278
582 2 0.0 10.517394066 5.258697033 6.135146141
583 2 0.0 10.517394066 5.258697033 9.640943527
584 2 0.0 10.517394066 5.258697033 13.146741867
585 2 0.0 10.517394066 8.76449585 2.629348278
586 2 0.0 10.517394066 8.76449585 6.135146141
587 2 0.0 10.517394066 8.76449585 9.640943527
588 2 0.0 10.517394066 8.76449585 13.146741867
589 2 0.0 10.517394066 12.270294189 2.629348278
590 2 0.0 10.517394066 12.270294189 6.135146141
591 2 0.0 10.517394066 12.270294189 9.640943527
592 2 0.0 10.517394066 12.270294189 13.146741867
593 2 0.0 10.517394066 15.776092529 2.629348278
594 2 0.0 10.517394066 15.776092529 6.135146141
595 2 0.0 10.517394066 15.776092529 9.640943527
596 2 0.0 10.517394066 15.776092529 13.146741867
597 2 0.0 14.023192406 1.752899051 2.629348278
598 2 0.0 14.023192406 1.752899051 6.135146141
599 2 0.0 14.023192406 1.752899051 9.640943527
600 2 0.0 14.023192406 1.752899051 13.146741867
601 2 0.0 14.023192406 5.258697033 2.629348278
602 2 0.0 14.023192406 5.258697033 6.135146141
603 2 0.0 14.023192406 5.258697033 9.640943527
604 2 0.0 14.023192406 5.258697033 13.146741867
605 2 0.0 14.023192406 8.76449585 2.629348278
606 2 0.0 14.023192406 8.76449585 6.135146141
607 2 0.0 14.023192406 8.76449585 9.640943527
608 2 0.0 14.023192406 8.76449585 13.146741867
609 2 0.0 14.023192406 12.270294189 2.629348278
610 2 0.0 14.023192406 12.270294189 6.135146141
611 2 0.0 14.023192406 12.270294189 9.640943527
612 2 0.0 14.023192406 12.270294189 13.146741867
613 2 0.0 14.023192406 15.776092529 2.629348278
614 2 0.0 14.023192406 15.776092529 6.135146141
615 2 0.0 14.023192406 15.776092529 9.640943527
616 2 0.0 14.023192406 15.776092529 13.146741867