# LAMMPS data file written by Ovito Basic 3.0.0-dev791
2064 atoms
2 atom types
0.0 28.2646484375 xlo xhi
0.0 28.2646484375 ylo yhi
0.0 28.0463848114 zlo zhi

Atoms  # charge

1 1 0.0 0.0 0.0 27.169933319
2 1 0.0 0.0 0.0 23.664134979
3 1 0.0 0.0 0.0 20.158336639
4 1 0.0 0.0 0.0 16.652540207
5 1 0.0 24.785921097 0.434840709 27.169933319
6 1 0.0 24.785921097 0.434840709 23.664134979
7 1 0.0 24.785921097 0.434840709 20.158336639
8 1 0.0 24.785921097 0.434840709 16.652540207
9 1 0.0 25.220762253 3.913566589 27.169933319
10 1 0.0 25.220762253 3.913566589 23.664134979
11 1 0.0 25.220762253 3.913566589 20.158336639
12 1 0.0 25.220762253 3.913566589 16.652540207
13 1 0.0 25.655601501 7.392292023 27.169933319
14 1 0.0 25.655601501 7.392292023 23.664134979
15 1 0.0 25.655601501 7.392292023 20.158336639
16 1 0.0 25.655601501 7.392292023 16.652540207
17 1 0.0 26.090442657 10.87101841 27.169933319
18 1 0.0 26.090442657 10.87101841 23.664134979
19 1 0.0 26.090442657 10.87101841 20.158336639
20 1 0.0 26.090442657 10.87101841 16.652540207
21 1 0.0 26.525283813 14.349743843 27.169933319
22 1 0.0 26.525283813 14.349743843 23.664134979
23 1 0.0 26.525283813 14.349743843 20.158336639
24 1 0.0 26.525283813 14.349743843 16.652540207
25 1 0.0 26.960124969 17.828468323 27.169933319
26 1 0.0 26.960124969 17.828468323 23.664134979
27 1 0.0 26.960124969 17.828468323 20.158336639
28 1 0.0 26.960124969 17.828468323 16.652540207
29 1 0.0 27.394964218 21.307195663 27.169933319
30 1 0.0 27.394964218 21.307195663 23.664134979
31 1 0.0 27.394964218 21.307195663 20.158336639
32 1 0.0 27.394964218 21.307195663 16.652540207
33 1 0.0 27.829805374 24.785921097 27.169933319
34 1 0.0 27.829805374 24.785921097 23.664134979
35 1 0.0 27.829805374 24.785921097 20.158336639
36 1 0.0 27.829805374 24.785921097 16.652540207
37 1 0.0 0.434840709 3.478725672 27.169933319
38 1 0.0 0.434840709 3.478725672 23.664134979
39 1 0.0 0.434840709 3.478725672 20.158336639
40 1 0.0 0.434840709 3.478725672 16.652540207
41 1 0.0 0.869681418 6.957451344 27.169933319
42 1 0.0 0.869681418 6.957451344 23.664134979
43 1 0.0 0.869681418 6.957451344 20.158336639
44 1 0.0 0.869681418 6.957451344 16.652540207
45 1 0.0 1.304522157 10.436177254 27.169933319
46 1 0.0 1.304522157 10.436177254 23.664134979
47 1 0.0 1.304522157 10.436177254 20.158336639
48 1 0.0 1.304522157 10.436177254 16.652540207
49 1 0.0 1.739362836 13.914902687 27.169933319
50 1 0.0 1.739362836 13.914902687 23.664134979
51 1 0.0 1.739362836 13.914902687 20.158336639
52 1 0.0 1.739362836 13.914902687 16.652540207
53 1 0.0 2.174203634 17.393629074 27.169933319
54 1 0.0 2.174203634 17.393629074 23.664134979
55 1 0.0 2.174203634 17.393629074 20.158336639
56 1 0.0 2.174203634 17.393629074 16.652540207
57 1 0.0 2.609044313 20.872354507 27.169933319
58 1 0.0 2.609044313 20.872354507 23.664134979
59 1 0.0 2.609044313 20.872354507 20.158336639
60 1 0.0 2.609044313 20.872354507 16.652540207
61 1 0.0 3.043884993 24.351079941 27.169933319
62 1 0.0 3.043884993 24.351079941 23.664134979
63 1 0.0 3.043884993 24.351079941 20.158336639
64 1 0.0 3.043884993 24.351079941 16.652540207
65 1 0.0 3.478725672 27.829805374 27.169933319
66 1 0.0 3.478725672 27.829805374 23.664134979
67 1 0.0 3.478725672 27.829805374 20.158336639
68 1 0.0 3.478725672 27.829805374 16.652540207
69 1 0.0 3.913566589 3.043884993 27.169933319
70 1 0.0 3.913566589 3.043884993 23.664134979
71 1 0.0 3.913566589 3.043884993 20.158336639
72 1 0.0 3.913566589 3.043884993 16.652540207
73 1 0.0 4.348407269 6.522610664 27.169933319
74 1 0.0 4.348407269 6.522610664 23.664134979
75 1 0.0 4.348407269 6.522610664 20.158336639
76 1 0.0 4.348407269 6.522610664 16.652540207
77 1 0.0 4.783247948 10.001336098 27.169933319
78 1 0.0 4.783247948 10.001336098 23.664134979
79 1 0.0 4.783247948 10.001336098 20.158336639
80 1 0.0 4.783247948 10.001336098 16.652540207
81 1 0.0 5.218088627 13.480062485 27.169933319
82 1 0.0 5.218088627 13.480062485 23.664134979
83 1 0.0 5.218088627 13.480062485 20.158336639
84 1 0.0 5.218088627 13.480062485 16.652540207
85 1 0.0 5.652929306 16.958787918 27.169933319
86 1 0.0 5.652929306 16.958787918 23.664134979
87 1 0.0 5.652929306 16.958787918 20.158336639
88 1 0.0 5.652929306 16.958787918 16.652540207
89 1 0.0 6.087769985 20.437513351 27.169933319
90 1 0.0 6.087769985 20.437513351 23.664134979
91 1 0.0 6.087769985 20.437513351 20.158336639
92 1 0.0 6.087769985 20.437513351 16.652540207
93 1 0.0 6.522610664 23.916238785 27.169933319
94 1 0.0 6.522610664 23.916238785 23.664134979
95 1 0.0 6.522610664 23.916238785 20.158336639
96 1 0.0 6.522610664 23.916238785 16.652540207
97 1 0.0 6.957451344 27.394964218 27.169933319
98 1 0.0 6.957451344 27.394964218 23.664134979
99 1 0.0 6.957451344 27.394964218 20.158336639
100 1 0.0 6.957451344 27.394964218 16.652540207
101 1 0.0 7.392292023 2.609044313 27.169933319
102 1 0.0 7.392292023 2.609044313 23.664134979
103 1 0.0 7.392292023 2.609044313 20.158336639
104 1 0.0 7.392292023 2.609044313 16.652540207
105 1 0.0 7.827133179 6.087769985 27.169933319
106 1 0.0 7.827133179 6.087769985 23.664134979
107 1 0.0 7.827133179 6.087769985 20.158336639
108 1 0.0 7.827133179 6.087769985 16.652540207
109 1 0.0 8.261973381 9.566495895 27.169933319
110 1 0.0 8.261973381 9.566495895 23.664134979
111 1 0.0 8.261973381 9.566495895 20.158336639
112 1 0.0 8.261973381 9.566495895 16.652540207
113 1 0.0 8.696814537 13.045221329 27.169933319
114 1 0.0 8.696814537 13.045221329 23.664134979
115 1 0.0 8.696814537 13.045221329 20.158336639
116 1 0.0 8.696814537 13.045221329 16.652540207
117 1 0.0 9.131654739 16.523946762 27.169933319
118 1 0.0 9.131654739 16.523946762 23.664134979
119 1 0.0 9.131654739 16.523946762 20.158336639
120 1 0.0 9.131654739 16.523946762 16.652540207
121 1 0.0 9.566495895 20.002672195 27.169933319
122 1 0.0 9.566495895 20.002672195 23.664134979
123 1 0.0 9.566495895 20.002672195 20.158336639
124 1 0.0 9.566495895 20.002672195 16.652540207
125 1 0.0 10.001336098 23.481401443 27.169933319
126 1 0.0 10.001336098 23.481401443 23.664134979
127 1 0.0 10.001336098 23.481401443 20.158336639
128 1 0.0 10.001336098 23.481401443 16.652540207
129 1 0.0 10.436177254 26.960124969 27.169933319
130 1 0.0 10.436177254 26.960124969 23.664134979
131 1 0.0 10.436177254 26.960124969 20.158336639
132 1 0.0 10.436177254 26.960124969 16.652540207
133 1 0.0 10.87101841 2.174203634 27.169933319
134 1 0.0 10.87101841 2.174203634 23.664134979
135 1 0.0 10.87101841 2.174203634 20.158336639
136 1 0.0 10.87101841 2.174203634 16.652540207
137 1 0.0 11.305858612 5.652929306 27.169933319
138 1 0.0 11.305858612 5.652929306 23.664134979
139 1 0.0 11.305858612 5.652929306 20.158336639
140 1 0.0 11.305858612 5.652929306 16.652540207
141 1 0.0 11.740700722 9.131654739 27.169933319
142 1 0.0 11.740700722 9.131654739 23.664134979
143 1 0.0 11.740700722 9.131654739 20.158336639
144 1 0.0 11.740700722 9.131654739 16.652540207
145 1 0.0 12.17553997 12.610381126 27.169933319
146 1 0.0 12.17553997 12.610381126 23.664134979
147 1 0.0 12.17553997 12.610381126 20.158336639
148 1 0.0 12.17553997 12.610381126 16.652540207
149 1 0.0 12.610381126 16.089107513 27.169933319
150 1 0.0 12.610381126 16.089107513 23.664134979
151 1 0.0 12.610381126 16.089107513 20.158336639
152 1 0.0 12.610381126 16.089107513 16.652540207
153 1 0.0 13.045221329 19.567832947 27.169933319
154 1 0.0 13.045221329 19.567832947 23.664134979
155 1 0.0 13.045221329 19.567832947 20.158336639
156 1 0.0 13.045221329 19.567832947 16.652540207
157 1 0.0 13.480062485 23.04655838 27.169933319
158 1 0.0 13.480062485 23.04655838 23.664134979
159 1 0.0 13.480062485 23.04655838 20.158336639
160 1 0.0 13.480062485 23.04655838 16.652540207
161 1 0.0 13.914902687 26.525283813 27.169933319
162 1 0.0 13.914902687 26.525283813 23.664134979
163 1 0.0 13.914902687 26.525283813 20.158336639
164 1 0.0 13.914902687 26.525283813 16.652540207
165 1 0.0 14.349743843 1.739362836 27.169933319
166 1 0.0 14.349743843 1.739362836 23.664134979
167 1 0.0 14.349743843 1.739362836 20.158336639
168 1 0.0 14.349743843 1.739362836 16.652540207
169 1 0.0 14.784584045 5.218088627 27.169933319
170 1 0.0 14.784584045 5.218088627 23.664134979
171 1 0.0 14.784584045 5.218088627 20.158336639
172 1 0.0 14.784584045 5.218088627 16.652540207
173 1 0.0 15.219425201 8.696814537 27.169933319
174 1 0.0 15.219425201 8.696814537 23.664134979
175 1 0.0 15.219425201 8.696814537 20.158336639
176 1 0.0 15.219425201 8.696814537 16.652540207
177 1 0.0 15.654266357 12.17553997 27.169933319
178 1 0.0 15.654266357 12.17553997 23.664134979
179 1 0.0 15.654266357 12.17553997 20.158336639
180 1 0.0 15.654266357 12.17553997 16.652540207
181 1 0.0 16.089107513 15.654266357 27.169933319
182 1 0.0 16.089107513 15.654266357 23.664134979
183 1 0.0 16.089107513 15.654266357 20.158336639
184 1 0.0 16.089107513 15.654266357 16.652540207
185 1 0.0 16.523946762 19.132991791 27.169933319
186 1 0.0 16.523946762 19.132991791 23.664134979
187 1 0.0 16.523946762 19.132991791 20.158336639
188 1 0.0 16.523946762 19.132991791 16.652540207
189 1 0.0 16.958787918 22.611717224 27.169933319
190 1 0.0 16.958787918 22.611717224 23.664134979
191 1 0.0 16.958787918 22.611717224 20.158336639
192 1 0.0 16.958787918 22.611717224 16.652540207
193 1 0.0 17.393629074 26.090442657 27.169933319
194 1 0.0 17.393629074 26.090442657 23.664134979
195 1 0.0 17.393629074 26.090442657 20.158336639
196 1 0.0 17.393629074 26.090442657 16.652540207
197 1 0.0 17.828468323 1.304522157 27.169933319
198 1 0.0 17.828468323 1.304522157 23.664134979
199 1 0.0 17.828468323 1.304522157 20.158336639
200 1 0.0 17.828468323 1.304522157 16.652540207
201 1 0.0 18.263309479 4.783247948 27.169933319
202 1 0.0 18.263309479 4.783247948 23.664134979
203 1 0.0 18.263309479 4.783247948 20.158336639
204 1 0.0 18.263309479 4.783247948 16.652540207
205 1 0.0 18.698150635 8.261973381 27.169933319
206 1 0.0 18.698150635 8.261973381 23.664134979
207 1 0.0 18.698150635 8.261973381 20.158336639
208 1 0.0 18.698150635 8.261973381 16.652540207
209 1 0.0 19.132991791 11.740700722 27.169933319
210 1 0.0 19.132991791 11.740700722 23.664134979
211 1 0.0 19.132991791 11.740700722 20.158336639
212 1 0.0 19.132991791 11.740700722 16.652540207
213 1 0.0 19.567832947 15.219425201 27.169933319
214 1 0.0 19.567832947 15.219425201 23.664134979
215 1 0.0 19.567832947 15.219425201 20.158336639
216 1 0.0 19.567832947 15.219425201 16.652540207
217 1 0.0 20.002672195 18.698150635 27.169933319
218 1 0.0 20.002672195 18.698150635 23.664134979
219 1 0.0 20.002672195 18.698150635 20.158336639
220 1 0.0 20.002672195 18.698150635 16.652540207
221 1 0.0 20.437513351 22.176876068 27.169933319
222 1 0.0 20.437513351 22.176876068 23.664134979
223 1 0.0 20.437513351 22.176876068 20.158336639
224 1 0.0 20.437513351 22.176876068 16.652540207
225 1 0.0 20.872354507 25.655601501 27.169933319
226 1 0.0 20.872354507 25.655601501 23.664134979
227 1 0.0 20.872354507 25.655601501 20.158336639
228 1 0.0 20.872354507 25.655601501 16.652540207
229 1 0.0 21.307195663 0.869681418 27.169933319
230 1 0.0 21.307195663 0.869681418 23.664134979
231 1 0.0 21.307195663 0.869681418 20.158336639
232 1 0.0 21.307195663 0.869681418 16.652540207
233 1 0.0 21.742036819 4.348407269 27.169933319
234 1 0.0 21.742036819 4.348407269 23.664134979
235 1 0.0 21.742036819 4.348407269 20.158336639
236 1 0.0 21.742036819 4.348407269 16.652540207
237 1 0.0 22.176876068 7.827133179 27.169933319
238 1 0.0 22.176876068 7.827133179 23.664134979
239 1 0.0 22.176876068 7.827133179 20.158336639
240 1 0.0 22.176876068 7.827133179 16.652540207
241 1 0.0 22.611717224 11.305858612 27.169933319
242 1 0.0 22.611717224 11.305858612 23.664134979
243 1 0.0 22.611717224 11.305858612 20.158336639
244 1 0.0 22.611717224 11.305858612 16.652540207
245 1 0.0 23.04655838 14.784584045 27.169933319
246 1 0.0 23.04655838 14.784584045 23.664134979
247 1 0.0 23.04655838 14.784584045 20.158336639
248 1 0.0 23.04655838 14.784584045 16.652540207
249 1 0.0 23.481401443 18.263309479 27.169933319
250 1 0.0 23.481401443 18.263309479 23.664134979
251 1 0.0 23.481401443 18.263309479 20.158336639
252 1 0.0 23.481401443 18.263309479 16.652540207
253 1 0.0 23.916238785 21.742036819 27.169933319
254 1 0.0 23.916238785 21.742036819 23.664134979
255 1 0.0 23.916238785 21.742036819 20.158336639
256 1 0.0 23.916238785 21.742036819 16.652540207
257 1 0.0 24.351079941 25.220762253 27.169933319
258 1 0.0 24.351079941 25.220762253 23.664134979
259 1 0.0 24.351079941 25.220762253 20.158336639
260 1 0.0 24.351079941 25.220762253 16.652540207
261 1 0.0 0.217420354 1.739362836 25.417034149
262 1 0.0 0.217420354 1.739362836 21.911235809
263 1 0.0 0.217420354 1.739362836 18.405437469
264 1 0.0 0.217420354 1.739362836 14.899640083
265 1 0.0 25.003341675 2.174203634 25.417034149
266 1 0.0 25.003341675 2.174203634 21.911235809
267 1 0.0 25.003341675 2.174203634 18.405437469
268 1 0.0 25.003341675 2.174203634 14.899640083
269 1 0.0 25.438182831 5.652929306 25.417034149
270 1 0.0 25.438182831 5.652929306 21.911235809
271 1 0.0 25.438182831 5.652929306 18.405437469
272 1 0.0 25.438182831 5.652929306 14.899640083
273 1 0.0 25.873023987 9.131654739 25.417034149
274 1 0.0 25.873023987 9.131654739 21.911235809
275 1 0.0 25.873023987 9.131654739 18.405437469
276 1 0.0 25.873023987 9.131654739 14.899640083
277 1 0.0 26.307863235 12.610381126 25.417034149
278 1 0.0 26.307863235 12.610381126 21.911235809
279 1 0.0 26.307863235 12.610381126 18.405437469
280 1 0.0 26.307863235 12.610381126 14.899640083
281 1 0.0 26.742704391 16.089107513 25.417034149
282 1 0.0 26.742704391 16.089107513 21.911235809
283 1 0.0 26.742704391 16.089107513 18.405437469
284 1 0.0 26.742704391 16.089107513 14.899640083
285 1 0.0 27.177545547 19.567832947 25.417034149
286 1 0.0 27.177545547 19.567832947 21.911235809
287 1 0.0 27.177545547 19.567832947 18.405437469
288 1 0.0 27.177545547 19.567832947 14.899640083
289 1 0.0 27.612386703 23.04655838 25.417034149
290 1 0.0 27.612386703 23.04655838 21.911235809
291 1 0.0 27.612386703 23.04655838 18.405437469
292 1 0.0 27.612386703 23.04655838 14.899640083
293 1 0.0 28.047229767 26.525283813 25.417034149
294 1 0.0 28.047229767 26.525283813 21.911235809
295 1 0.0 28.047229767 26.525283813 18.405437469
296 1 0.0 28.047229767 26.525283813 14.899640083
297 1 0.0 0.652261078 5.218088627 25.417034149
298 1 0.0 0.652261078 5.218088627 21.911235809
299 1 0.0 0.652261078 5.218088627 18.405437469
300 1 0.0 0.652261078 5.218088627 14.899640083
301 1 0.0 1.087101817 8.696814537 25.417034149
302 1 0.0 1.087101817 8.696814537 21.911235809
303 1 0.0 1.087101817 8.696814537 18.405437469
304 1 0.0 1.087101817 8.696814537 14.899640083
305 1 0.0 1.521942496 12.17553997 25.417034149
306 1 0.0 1.521942496 12.17553997 21.911235809
307 1 0.0 1.521942496 12.17553997 18.405437469
308 1 0.0 1.521942496 12.17553997 14.899640083
309 1 0.0 1.956783295 15.654266357 25.417034149
310 1 0.0 1.956783295 15.654266357 21.911235809
311 1 0.0 1.956783295 15.654266357 18.405437469
312 1 0.0 1.956783295 15.654266357 14.899640083
313 1 0.0 2.391623974 19.132991791 25.417034149
314 1 0.0 2.391623974 19.132991791 21.911235809
315 1 0.0 2.391623974 19.132991791 18.405437469
316 1 0.0 2.391623974 19.132991791 14.899640083
317 1 0.0 2.826464653 22.611717224 25.417034149
318 1 0.0 2.826464653 22.611717224 21.911235809
319 1 0.0 2.826464653 22.611717224 18.405437469
320 1 0.0 2.826464653 22.611717224 14.899640083
321 1 0.0 3.261305332 26.090442657 25.417034149
322 1 0.0 3.261305332 26.090442657 21.911235809
323 1 0.0 3.261305332 26.090442657 18.405437469
324 1 0.0 3.261305332 26.090442657 14.899640083
325 1 0.0 3.696146011 1.304523706 25.417034149
326 1 0.0 3.696146011 1.304523706 21.911235809
327 1 0.0 3.696146011 1.304523706 18.405437469
328 1 0.0 3.696146011 1.304523706 14.899640083
329 1 0.0 4.130986691 4.783247948 25.417034149
330 1 0.0 4.130986691 4.783247948 21.911235809
331 1 0.0 4.130986691 4.783247948 18.405437469
332 1 0.0 4.130986691 4.783247948 14.899640083
333 1 0.0 4.56582737 8.261973381 25.417034149
334 1 0.0 4.56582737 8.261973381 21.911235809
335 1 0.0 4.56582737 8.261973381 18.405437469
336 1 0.0 4.56582737 8.261973381 14.899640083
337 1 0.0 5.000668049 11.740700722 25.417034149
338 1 0.0 5.000668049 11.740700722 21.911235809
339 1 0.0 5.000668049 11.740700722 18.405437469
340 1 0.0 5.000668049 11.740700722 14.899640083
341 1 0.0 5.435509205 15.219425201 25.417034149
342 1 0.0 5.435509205 15.219425201 21.911235809
343 1 0.0 5.435509205 15.219425201 18.405437469
344 1 0.0 5.435509205 15.219425201 14.899640083
345 1 0.0 5.870350361 18.698150635 25.417034149
346 1 0.0 5.870350361 18.698150635 21.911235809
347 1 0.0 5.870350361 18.698150635 18.405437469
348 1 0.0 5.870350361 18.698150635 14.899640083
349 1 0.0 6.305190563 22.176876068 25.417034149
350 1 0.0 6.305190563 22.176876068 21.911235809
351 1 0.0 6.305190563 22.176876068 18.405437469
352 1 0.0 6.305190563 22.176876068 14.899640083
353 1 0.0 6.740031242 25.655601501 25.417034149
354 1 0.0 6.740031242 25.655601501 21.911235809
355 1 0.0 6.740031242 25.655601501 18.405437469
356 1 0.0 6.740031242 25.655601501 14.899640083
357 1 0.0 7.174871922 0.869681358 25.417034149
358 1 0.0 7.174871922 0.869681358 21.911235809
359 1 0.0 7.174871922 0.869681358 18.405437469
360 1 0.0 7.174871922 0.869681358 14.899640083
361 1 0.0 7.609712601 4.348407269 25.417034149
362 1 0.0 7.609712601 4.348407269 21.911235809
363 1 0.0 7.609712601 4.348407269 18.405437469
364 1 0.0 7.609712601 4.348407269 14.899640083
365 1 0.0 8.044553757 7.827133179 25.417034149
366 1 0.0 8.044553757 7.827133179 21.911235809
367 1 0.0 8.044553757 7.827133179 18.405437469
368 1 0.0 8.044553757 7.827133179 14.899640083
369 1 0.0 8.479393959 11.305858612 25.417034149
370 1 0.0 8.479393959 11.305858612 21.911235809
371 1 0.0 8.479393959 11.305858612 18.405437469
372 1 0.0 8.479393959 11.305858612 14.899640083
373 1 0.0 8.914234161 14.784584045 25.417034149
374 1 0.0 8.914234161 14.784584045 21.911235809
375 1 0.0 8.914234161 14.784584045 18.405437469
376 1 0.0 8.914234161 14.784584045 14.899640083
377 1 0.0 9.349075317 18.263309479 25.417034149
378 1 0.0 9.349075317 18.263309479 21.911235809
379 1 0.0 9.349075317 18.263309479 18.405437469
380 1 0.0 9.349075317 18.263309479 14.899640083
381 1 0.0 9.783916473 21.742036819 25.417034149
382 1 0.0 9.783916473 21.742036819 21.911235809
383 1 0.0 9.783916473 21.742036819 18.405437469
384 1 0.0 9.783916473 21.742036819 14.899640083
385 1 0.0 10.218756676 25.220762253 25.417034149
386 1 0.0 10.218756676 25.220762253 21.911235809
387 1 0.0 10.218756676 25.220762253 18.405437469
388 1 0.0 10.218756676 25.220762253 14.899640083
389 1 0.0 10.653597832 0.434842378 25.417034149
390 1 0.0 10.653597832 0.434842378 21.911235809
391 1 0.0 10.653597832 0.434842378 18.405437469
392 1 0.0 10.653597832 0.434842378 14.899640083
393 1 0.0 11.088438034 3.913566589 25.417034149
394 1 0.0 11.088438034 3.913566589 21.911235809
395 1 0.0 11.088438034 3.913566589 18.405437469
396 1 0.0 11.088438034 3.913566589 14.899640083
397 1 0.0 11.52327919 7.392292023 25.417034149
398 1 0.0 11.52327919 7.392292023 21.911235809
399 1 0.0 11.52327919 7.392292023 18.405437469
400 1 0.0 11.52327919 7.392292023 14.899640083
401 1 0.0 11.958119392 10.87101841 25.417034149
402 1 0.0 11.958119392 10.87101841 21.911235809
403 1 0.0 11.958119392 10.87101841 18.405437469
404 1 0.0 11.958119392 10.87101841 14.899640083
405 1 0.0 12.392960548 14.349743843 25.417034149
406 1 0.0 12.392960548 14.349743843 21.911235809
407 1 0.0 12.392960548 14.349743843 18.405437469
408 1 0.0 12.392960548 14.349743843 14.899640083
409 1 0.0 12.827800751 17.828468323 25.417034149
410 1 0.0 12.827800751 17.828468323 21.911235809
411 1 0.0 12.827800751 17.828468323 18.405437469
412 1 0.0 12.827800751 17.828468323 14.899640083
413 1 0.0 13.262641907 21.307195663 25.417034149
414 1 0.0 13.262641907 21.307195663 21.911235809
415 1 0.0 13.262641907 21.307195663 18.405437469
416 1 0.0 13.262641907 21.307195663 14.899640083
417 1 0.0 13.697482109 24.785921097 25.417034149
418 1 0.0 13.697482109 24.785921097 21.911235809
419 1 0.0 13.697482109 24.785921097 18.405437469
420 1 0.0 13.697482109 24.785921097 14.899640083
421 1 0.0 14.132323265 0.0 25.417034149
422 1 0.0 14.132323265 0.0 21.911235809
423 1 0.0 14.132323265 0.0 18.405437469
424 1 0.0 14.132323265 0.0 14.899640083
425 1 0.0 14.567165375 3.478725672 25.417034149
426 1 0.0 14.567165375 3.478725672 21.911235809
427 1 0.0 14.567165375 3.478725672 18.405437469
428 1 0.0 14.567165375 3.478725672 14.899640083
429 1 0.0 15.002005577 6.957451344 25.417034149
430 1 0.0 15.002005577 6.957451344 21.911235809
431 1 0.0 15.002005577 6.957451344 18.405437469
432 1 0.0 15.002005577 6.957451344 14.899640083
433 1 0.0 15.436846733 10.436177254 25.417034149
434 1 0.0 15.436846733 10.436177254 21.911235809
435 1 0.0 15.436846733 10.436177254 18.405437469
436 1 0.0 15.436846733 10.436177254 14.899640083
437 1 0.0 15.871686935 13.914902687 25.417034149
438 1 0.0 15.871686935 13.914902687 21.911235809
439 1 0.0 15.871686935 13.914902687 18.405437469
440 1 0.0 15.871686935 13.914902687 14.899640083
441 1 0.0 16.306528091 17.393629074 25.417034149
442 1 0.0 16.306528091 17.393629074 21.911235809
443 1 0.0 16.306528091 17.393629074 18.405437469
444 1 0.0 16.306528091 17.393629074 14.899640083
445 1 0.0 16.741371155 20.872354507 25.417034149
446 1 0.0 16.741371155 20.872354507 21.911235809
447 1 0.0 16.741371155 20.872354507 18.405437469
448 1 0.0 16.741371155 20.872354507 14.899640083
449 1 0.0 17.176208496 24.351079941 25.417034149
450 1 0.0 17.176208496 24.351079941 21.911235809
451 1 0.0 17.176208496 24.351079941 18.405437469
452 1 0.0 17.176208496 24.351079941 14.899640083
453 1 0.0 17.611049652 27.829805374 25.417034149
454 1 0.0 17.611049652 27.829805374 21.911235809
455 1 0.0 17.611049652 27.829805374 18.405437469
456 1 0.0 17.611049652 27.829805374 14.899640083
457 1 0.0 18.045890808 3.043884993 25.417034149
458 1 0.0 18.045890808 3.043884993 21.911235809
459 1 0.0 18.045890808 3.043884993 18.405437469
460 1 0.0 18.045890808 3.043884993 14.899640083
461 1 0.0 18.480731964 6.522610664 25.417034149
462 1 0.0 18.480731964 6.522610664 21.911235809
463 1 0.0 18.480731964 6.522610664 18.405437469
464 1 0.0 18.480731964 6.522610664 14.899640083
465 1 0.0 18.915571213 10.001336098 25.417034149
466 1 0.0 18.915571213 10.001336098 21.911235809
467 1 0.0 18.915571213 10.001336098 18.405437469
468 1 0.0 18.915571213 10.001336098 14.899640083
469 1 0.0 19.350412369 13.480062485 25.417034149
470 1 0.0 19.350412369 13.480062485 21.911235809
471 1 0.0 19.350412369 13.480062485 18.405437469
472 1 0.0 19.350412369 13.480062485 14.899640083
473 1 0.0 19.785253525 16.958787918 25.417034149
474 1 0.0 19.785253525 16.958787918 21.911235809
475 1 0.0 19.785253525 16.958787918 18.405437469
476 1 0.0 19.785253525 16.958787918 14.899640083
477 1 0.0 20.220094681 20.437513351 25.417034149
478 1 0.0 20.220094681 20.437513351 21.911235809
479 1 0.0 20.220094681 20.437513351 18.405437469
480 1 0.0 20.220094681 20.437513351 14.899640083
481 1 0.0 20.654933929 23.916238785 25.417034149
482 1 0.0 20.654933929 23.916238785 21.911235809
483 1 0.0 20.654933929 23.916238785 18.405437469
484 1 0.0 20.654933929 23.916238785 14.899640083
485 1 0.0 21.089775085 27.394964218 25.417034149
486 1 0.0 21.089775085 27.394964218 21.911235809
487 1 0.0 21.089775085 27.394964218 18.405437469
488 1 0.0 21.089775085 27.394964218 14.899640083
489 1 0.0 21.524616241 2.609044313 25.417034149
490 1 0.0 21.524616241 2.609044313 21.911235809
491 1 0.0 21.524616241 2.609044313 18.405437469
492 1 0.0 21.524616241 2.609044313 14.899640083
493 1 0.0 21.959457397 6.087769985 25.417034149
494 1 0.0 21.959457397 6.087769985 21.911235809
495 1 0.0 21.959457397 6.087769985 18.405437469
496 1 0.0 21.959457397 6.087769985 14.899640083
497 1 0.0 22.394300461 9.566495895 25.417034149
498 1 0.0 22.394300461 9.566495895 21.911235809
499 1 0.0 22.394300461 9.566495895 18.405437469
500 1 0.0 22.394300461 9.566495895 14.899640083
501 1 0.0 22.829137802 13.045221329 25.417034149
502 1 0.0 22.829137802 13.045221329 21.911235809
503 1 0.0 22.829137802 13.045221329 18.405437469
504 1 0.0 22.829137802 13.045221329 14.899640083
505 1 0.0 23.263978958 16.523946762 25.417034149
506 1 0.0 23.263978958 16.523946762 21.911235809
507 1 0.0 23.263978958 16.523946762 18.405437469
508 1 0.0 23.263978958 16.523946762 14.899640083
509 1 0.0 23.698820114 20.002672195 25.417034149
510 1 0.0 23.698820114 20.002672195 21.911235809
511 1 0.0 23.698820114 20.002672195 18.405437469
512 1 0.0 23.698820114 20.002672195 14.899640083
513 1 0.0 24.13366127 23.481401443 25.417034149
514 1 0.0 24.13366127 23.481401443 21.911235809
515 1 0.0 24.13366127 23.481401443 18.405437469
516 1 0.0 24.13366127 23.481401443 14.899640083
517 1 0.0 24.568502426 26.960124969 25.417034149
518 1 0.0 24.568502426 26.960124969 21.911235809
519 1 0.0 24.568502426 26.960124969 18.405437469
520 1 0.0 24.568502426 26.960124969 14.899640083
521 1 0.0 1.739362836 28.047225952 25.417034149
522 1 0.0 1.739362836 28.047225952 21.911235809
523 1 0.0 1.739362836 28.047225952 18.405437469
524 1 0.0 1.739362836 28.047225952 14.899640083
525 1 0.0 26.525283813 0.217421189 25.417034149
526 1 0.0 26.525283813 0.217421189 21.911235809
527 1 0.0 26.525283813 0.217421189 18.405437469
528 1 0.0 26.525283813 0.217421189 14.899640083
529 1 0.0 26.960124969 3.696146488 25.417034149
530 1 0.0 26.960124969 3.696146488 21.911235809
531 1 0.0 26.960124969 3.696146488 18.405437469
532 1 0.0 26.960124969 3.696146488 14.899640083
533 1 0.0 27.394964218 7.174871922 25.417034149
534 1 0.0 27.394964218 7.174871922 21.911235809
535 1 0.0 27.394964218 7.174871922 18.405437469
536 1 0.0 27.394964218 7.174871922 14.899640083
537 1 0.0 27.829805374 10.653597832 25.417034149
538 1 0.0 27.829805374 10.653597832 21.911235809
539 1 0.0 27.829805374 10.653597832 18.405437469
540 1 0.0 27.829805374 10.653597832 14.899640083
541 1 0.0 0.0 14.132323265 25.417034149
542 1 0.0 0.0 14.132323265 21.911235809
543 1 0.0 0.0 14.132323265 18.405437469
544 1 0.0 0.0 14.132323265 14.899640083
545 1 0.0 0.434842378 17.611047745 25.417034149
546 1 0.0 0.434842378 17.611047745 21.911235809
547 1 0.0 0.434842378 17.611047745 18.405437469
548 1 0.0 0.434842378 17.611047745 14.899640083
549 1 0.0 0.869681358 21.089773178 25.417034149
550 1 0.0 0.869681358 21.089773178 21.911235809
551 1 0.0 0.869681358 21.089773178 18.405437469
552 1 0.0 0.869681358 21.089773178 14.899640083
553 1 0.0 1.304523706 24.568502426 25.417034149
554 1 0.0 1.304523706 24.568502426 21.911235809
555 1 0.0 1.304523706 24.568502426 18.405437469
556 1 0.0 1.304523706 24.568502426 14.899640083
557 1 0.0 2.174203634 3.261304379 25.417034149
558 1 0.0 2.174203634 3.261304379 21.911235809
559 1 0.0 2.174203634 3.261304379 18.405437469
560 1 0.0 2.174203634 3.261304379 14.899640083
561 1 0.0 2.609044313 6.740029812 25.417034149
562 1 0.0 2.609044313 6.740029812 21.911235809
563 1 0.0 2.609044313 6.740029812 18.405437469
564 1 0.0 2.609044313 6.740029812 14.899640083
565 1 0.0 3.043884993 10.218754768 25.417034149
566 1 0.0 3.043884993 10.218754768 21.911235809
567 1 0.0 3.043884993 10.218754768 18.405437469
568 1 0.0 3.043884993 10.218754768 14.899640083
569 1 0.0 3.478725672 13.697481155 25.417034149
570 1 0.0 3.478725672 13.697481155 21.911235809
571 1 0.0 3.478725672 13.697481155 18.405437469
572 1 0.0 3.478725672 13.697481155 14.899640083
573 1 0.0 3.913566589 17.176208496 25.417034149
574 1 0.0 3.913566589 17.176208496 21.911235809
575 1 0.0 3.913566589 17.176208496 18.405437469
576 1 0.0 3.913566589 17.176208496 14.899640083
577 1 0.0 4.348407269 20.654932022 25.417034149
578 1 0.0 4.348407269 20.654932022 21.911235809
579 1 0.0 4.348407269 20.654932022 18.405437469
580 1 0.0 4.348407269 20.654932022 14.899640083
581 1 0.0 4.783247948 24.133657455 25.417034149
582 1 0.0 4.783247948 24.133657455 21.911235809
583 1 0.0 4.783247948 24.133657455 18.405437469
584 1 0.0 4.783247948 24.133657455 14.899640083
585 1 0.0 5.218088627 27.612382889 25.417034149
586 1 0.0 5.218088627 27.612382889 21.911235809
587 1 0.0 5.218088627 27.612382889 18.405437469
588 1 0.0 5.218088627 27.612382889 14.899640083
589 1 0.0 5.652929306 2.826465368 25.417034149
590 1 0.0 5.652929306 2.826465368 21.911235809
591 1 0.0 5.652929306 2.826465368 18.405437469
592 1 0.0 5.652929306 2.826465368 14.899640083
593 1 0.0 6.087769985 6.305190563 25.417034149
594 1 0.0 6.087769985 6.305190563 21.911235809
595 1 0.0 6.087769985 6.305190563 18.405437469
596 1 0.0 6.087769985 6.305190563 14.899640083
597 1 0.0 6.522610664 9.783916473 25.417034149
598 1 0.0 6.522610664 9.783916473 21.911235809
599 1 0.0 6.522610664 9.783916473 18.405437469
600 1 0.0 6.522610664 9.783916473 14.899640083
601 1 0.0 6.957451344 13.262641907 25.417034149
602 1 0.0 6.957451344 13.262641907 21.911235809
603 1 0.0 6.957451344 13.262641907 18.405437469
604 1 0.0 6.957451344 13.262641907 14.899640083
605 1 0.0 7.392292023 16.74136734 25.417034149
606 1 0.0 7.392292023 16.74136734 21.911235809
607 1 0.0 7.392292023 16.74136734 18.405437469
608 1 0.0 7.392292023 16.74136734 14.899640083
609 1 0.0 7.827133179 20.220092773 25.417034149
610 1 0.0 7.827133179 20.220092773 21.911235809
611 1 0.0 7.827133179 20.220092773 18.405437469