# LAMMPS data file written by Ovito Basic 3.0.0-dev791
528 atoms
2 atom types
0.0 14.4547758102 xlo xhi
0.0 14.4547758102 ylo yhi
0.0 28.0463848114 zlo zhi

Atoms  # charge

1 1 0.0 0.0 0.0 27.169933319
2 1 0.0 0.0 0.0 23.664134979
3 1 0.0 0.0 0.0 20.158336639
4 1 0.0 0.0 0.0 16.652540207
5 1 0.0 11.053652763 0.850280881 27.169933319
6 1 0.0 11.053652763 0.850280881 23.664134979
7 1 0.0 11.053652763 0.850280881 20.158336639
8 1 0.0 11.053652763 0.850280881 16.652540207
9 1 0.0 11.903932571 4.251404285 27.169933319
10 1 0.0 11.903932571 4.251404285 23.664134979
11 1 0.0 11.903932571 4.251404285 20.158336639
12 1 0.0 11.903932571 4.251404285 16.652540207
13 1 0.0 12.754213333 7.652527809 27.169933319
14 1 0.0 12.754213333 7.652527809 23.664134979
15 1 0.0 12.754213333 7.652527809 20.158336639
16 1 0.0 12.754213333 7.652527809 16.652540207
17 1 0.0 13.604494095 11.053652763 27.169933319
18 1 0.0 13.604494095 11.053652763 23.664134979
19 1 0.0 13.604494095 11.053652763 20.158336639
20 1 0.0 13.604494095 11.053652763 16.652540207
21 1 0.0 0.850280881 3.401123524 27.169933319
22 1 0.0 0.850280881 3.401123524 23.664134979
23 1 0.0 0.850280881 3.401123524 20.158336639
24 1 0.0 0.850280881 3.401123524 16.652540207
25 1 0.0 1.700561762 6.802247047 27.169933319
26 1 0.0 1.700561762 6.802247047 23.664134979
27 1 0.0 1.700561762 6.802247047 20.158336639
28 1 0.0 1.700561762 6.802247047 16.652540207
29 1 0.0 2.550842524 10.203370094 27.169933319
30 1 0.0 2.550842524 10.203370094 23.664134979
31 1 0.0 2.550842524 10.203370094 20.158336639
32 1 0.0 2.550842524 10.203370094 16.652540207
33 1 0.0 3.401123524 13.604494095 27.169933319
34 1 0.0 3.401123524 13.604494095 23.664134979
35 1 0.0 3.401123524 13.604494095 20.158336639
36 1 0.0 3.401123524 13.604494095 16.652540207
37 1 0.0 4.251404285 2.550842524 27.169933319
38 1 0.0 4.251404285 2.550842524 23.664134979
39 1 0.0 4.251404285 2.550842524 20.158336639
40 1 0.0 4.251404285 2.550842524 16.652540207
41 1 0.0 5.101685047 5.951966286 27.169933319
42 1 0.0 5.101685047 5.951966286 23.664134979
43 1 0.0 5.101685047 5.951966286 20.158336639
44 1 0.0 5.101685047 5.951966286 16.652540207
45 1 0.0 5.951966286 9.353089333 27.169933319
46 1 0.0 5.951966286 9.353089333 23.664134979
47 1 0.0 5.951966286 9.353089333 20.158336639
48 1 0.0 5.951966286 9.353089333 16.652540207
49 1 0.0 6.802247047 12.754213333 27.169933319
50 1 0.0 6.802247047 12.754213333 23.664134979
51 1 0.0 6.802247047 12.754213333 20.158336639
52 1 0.0 6.802247047 12.754213333 16.652540207
53 1 0.0 7.652527809 1.700561762 27.169933319
54 1 0.0 7.652527809 1.700561762 23.664134979
55 1 0.0 7.652527809 1.700561762 20.158336639
56 1 0.0 7.652527809 1.700561762 16.652540207
57 1 0.0 8.502808571 5.101685047 27.169933319
58 1 0.0 8.502808571 5.101685047 23.664134979
59 1 0.0 8.502808571 5.101685047 20.158336639
60 1 0.0 8.502808571 5.101685047 16.652540207
61 1 0.0 9.353089333 8.502808571 27.169933319
62 1 0.0 9.353089333 8.502808571 23.664134979
63 1 0.0 9.353089333 8.502808571 20.158336639
64 1 0.0 9.353089333 8.502808571 16.652540207
65 1 0.0 10.203370094 11.903932571 27.169933319
66 1 0.0 10.203370094 11.903932571 23.664134979
67 1 0.0 10.203370094 11.903932571 20.158336639
68 1 0.0 10.203370094 11.903932571 16.652540207
69 1 0.0 0.42514044 1.700561762 25.417034149
70 1 0.0 0.42514044 1.700561762 21.911235809
71 1 0.0 0.42514044 1.700561762 18.405437469
72 1 0.0 0.42514044 1.700561762 14.899640083
73 1 0.0 11.478792191 2.550842524 25.417034149
74 1 0.0 11.478792191 2.550842524 21.911235809
75 1 0.0 11.478792191 2.550842524 18.405437469
76 1 0.0 11.478792191 2.550842524 14.899640083
77 1 0.0 12.329072952 5.951966286 25.417034149
78 1 0.0 12.329072952 5.951966286 21.911235809
79 1 0.0 12.329072952 5.951966286 18.405437469
80 1 0.0 12.329072952 5.951966286 14.899640083
81 1 0.0 13.179353714 9.353089333 25.417034149
82 1 0.0 13.179353714 9.353089333 21.911235809
83 1 0.0 13.179353714 9.353089333 18.405437469
84 1 0.0 13.179353714 9.353089333 14.899640083
85 1 0.0 14.029634476 12.754213333 25.417034149
86 1 0.0 14.029634476 12.754213333 21.911235809
87 1 0.0 14.029634476 12.754213333 18.405437469
88 1 0.0 14.029634476 12.754213333 14.899640083
89 1 0.0 1.275421262 5.101685047 25.417034149
90 1 0.0 1.275421262 5.101685047 21.911235809
91 1 0.0 1.275421262 5.101685047 18.405437469
92 1 0.0 1.275421262 5.101685047 14.899640083
93 1 0.0 2.125702143 8.502808571 25.417034149
94 1 0.0 2.125702143 8.502808571 21.911235809
95 1 0.0 2.125702143 8.502808571 18.405437469
96 1 0.0 2.125702143 8.502808571 14.899640083
97 1 0.0 2.975983143 11.903932571 25.417034149
98 1 0.0 2.975983143 11.903932571 21.911235809
99 1 0.0 2.975983143 11.903932571 18.405437469
100 1 0.0 2.975983143 11.903932571 14.899640083
101 1 0.0 3.826263905 0.850281715 25.417034149
102 1 0.0 3.826263905 0.850281715 21.911235809
103 1 0.0 3.826263905 0.850281715 18.405437469
104 1 0.0 3.826263905 0.850281715 14.899640083
105 1 0.0 4.676544666 4.251404285 25.417034149
106 1 0.0 4.676544666 4.251404285 21.911235809
107 1 0.0 4.676544666 4.251404285 18.405437469
108 1 0.0 4.676544666 4.251404285 14.899640083
109 1 0.0 5.526826382 7.652527809 25.417034149
110 1 0.0 5.526826382 7.652527809 21.911235809
111 1 0.0 5.526826382 7.652527809 18.405437469
112 1 0.0 5.526826382 7.652527809 14.899640083
113 1 0.0 6.377106667 11.053652763 25.417034149
114 1 0.0 6.377106667 11.053652763 21.911235809
115 1 0.0 6.377106667 11.053652763 18.405437469
116 1 0.0 6.377106667 11.053652763 14.899640083
117 1 0.0 7.227387428 0.0 25.417034149
118 1 0.0 7.227387428 0.0 21.911235809
119 1 0.0 7.227387428 0.0 18.405437469
120 1 0.0 7.227387428 0.0 14.899640083
121 1 0.0 8.077670097 3.401123524 25.417034149
122 1 0.0 8.077670097 3.401123524 21.911235809
123 1 0.0 8.077670097 3.401123524 18.405437469
124 1 0.0 8.077670097 3.401123524 14.899640083
125 1 0.0 8.927949905 6.802247047 25.417034149
126 1 0.0 8.927949905 6.802247047 21.911235809
127 1 0.0 8.927949905 6.802247047 18.405437469
128 1 0.0 8.927949905 6.802247047 14.899640083
129 1 0.0 9.778230667 10.203370094 25.417034149
130 1 0.0 9.778230667 10.203370094 21.911235809
131 1 0.0 9.778230667 10.203370094 18.405437469
132 1 0.0 9.778230667 10.203370094 14.899640083
133 1 0.0 10.628511429 13.604494095 25.417034149
134 1 0.0 10.628511429 13.604494095 21.911235809
135 1 0.0 10.628511429 13.604494095 18.405437469
136 1 0.0 10.628511429 13.604494095 14.899640083
137 1 0.0 1.700561762 14.029633522 25.417034149
138 1 0.0 1.700561762 14.029633522 21.911235809
139 1 0.0 1.700561762 14.029633522 18.405437469
140 1 0.0 1.700561762 14.029633522 14.899640083
141 1 0.0 12.754213333 0.425140858 25.417034149
142 1 0.0 12.754213333 0.425140858 21.911235809
143 1 0.0 12.754213333 0.425140858 18.405437469
144 1 0.0 12.754213333 0.425140858 14.899640083
145 1 0.0 13.604494095 3.826263905 25.417034149
146 1 0.0 13.604494095 3.826263905 21.911235809
147 1 0.0 13.604494095 3.826263905 18.405437469
148 1 0.0 13.604494095 3.826263905 14.899640083
149 1 0.0 0.0 7.227387428 25.417034149
150 1 0.0 0.0 7.227387428 21.911235809
151 1 0.0 0.0 7.227387428 18.405437469
152 1 0.0 0.0 7.227387428 14.899640083
153 1 0.0 0.850281715 10.628510475 25.417034149
154 1 0.0 0.850281715 10.628510475 21.911235809
155 1 0.0 0.850281715 10.628510475 18.405437469
156 1 0.0 0.850281715 10.628510475 14.899640083
157 1 0.0 2.550842524 2.975982428 25.417034149
158 1 0.0 2.550842524 2.975982428 21.911235809
159 1 0.0 2.550842524 2.975982428 18.405437469
160 1 0.0 2.550842524 2.975982428 14.899640083
161 1 0.0 3.401123524 6.377105713 25.417034149
162 1 0.0 3.401123524 6.377105713 21.911235809
163 1 0.0 3.401123524 6.377105713 18.405437469
164 1 0.0 3.401123524 6.377105713 14.899640083
165 1 0.0 4.251404285 9.77822876 25.417034149
166 1 0.0 4.251404285 9.77822876 21.911235809
167 1 0.0 4.251404285 9.77822876 18.405437469
168 1 0.0 4.251404285 9.77822876 14.899640083
169 1 0.0 5.101685047 13.179351807 25.417034149
170 1 0.0 5.101685047 13.179351807 21.911235809
171 1 0.0 5.101685047 13.179351807 18.405437469
172 1 0.0 5.101685047 13.179351807 14.899640083
173 1 0.0 5.951966286 2.125702381 25.417034149
174 1 0.0 5.951966286 2.125702381 21.911235809
175 1 0.0 5.951966286 2.125702381 18.405437469
176 1 0.0 5.951966286 2.125702381 14.899640083
177 1 0.0 6.802247047 5.526826382 25.417034149
178 1 0.0 6.802247047 5.526826382 21.911235809
179 1 0.0 6.802247047 5.526826382 18.405437469
180 1 0.0 6.802247047 5.526826382 14.899640083
181 1 0.0 7.652527809 8.927948952 25.417034149
182 1 0.0 7.652527809 8.927948952 21.911235809
183 1 0.0 7.652527809 8.927948952 18.405437469
184 1 0.0 7.652527809 8.927948952 14.899640083
185 1 0.0 8.502808571 12.329071999 25.417034149
186 1 0.0 8.502808571 12.329071999 21.911235809
187 1 0.0 8.502808571 12.329071999 18.405437469
188 1 0.0 8.502808571 12.329071999 14.899640083
189 1 0.0 9.353089333 1.275420785 25.417034149
190 1 0.0 9.353089333 1.275420785 21.911235809
191 1 0.0 9.353089333 1.275420785 18.405437469
192 1 0.0 9.353089333 1.275420785 14.899640083
193 1 0.0 10.203370094 4.676543713 25.417034149
194 1 0.0 10.203370094 4.676543713 21.911235809
195 1 0.0 10.203370094 4.676543713 18.405437469
196 1 0.0 10.203370094 4.676543713 14.899640083
197 1 0.0 11.053652763 8.077670097 25.417034149
198 1 0.0 11.053652763 8.077670097 21.911235809
199 1 0.0 11.053652763 8.077670097 18.405437469
200 1 0.0 11.053652763 8.077670097 14.899640083
201 1 0.0 11.903932571 11.478792191 25.417034149
202 1 0.0 11.903932571 11.478792191 21.911235809
203 1 0.0 11.903932571 11.478792191 18.405437469
204 1 0.0 11.903932571 11.478792191 14.899640083
205 1 0.0 2.125702143 1.275421262 27.169933319
206 1 0.0 2.125702143 1.275421262 23.664134979
207 1 0.0 2.125702143 1.275421262 20.158336639
208 1 0.0 2.125702143 1.275421262 16.652540207
209 1 0.0 13.179353714 2.125702143 27.169933319
210 1 0.0 13.179353714 2.125702143 23.664134979
211 1 0.0 13.179353714 2.125702143 20.158336639
212 1 0.0 13.179353714 2.125702143 16.652540207
213 1 0.0 14.029634476 5.526826382 27.169933319
214 1 0.0 14.029634476 5.526826382 23.664134979
215 1 0.0 14.029634476 5.526826382 20.158336639
216 1 0.0 14.029634476 5.526826382 16.652540207
217 1 0.0 0.425140858 8.927949905 27.169933319
218 1 0.0 0.425140858 8.927949905 23.664134979
219 1 0.0 0.425140858 8.927949905 20.158336639
220 1 0.0 0.425140858 8.927949905 16.652540207
221 1 0.0 1.275420785 12.329072952 27.169933319
222 1 0.0 1.275420785 12.329072952 23.664134979
223 1 0.0 1.275420785 12.329072952 20.158336639
224 1 0.0 1.275420785 12.329072952 16.652540207
225 1 0.0 2.975983143 4.676544666 27.169933319
226 1 0.0 2.975983143 4.676544666 23.664134979
227 1 0.0 2.975983143 4.676544666 20.158336639
228 1 0.0 2.975983143 4.676544666 16.652540207
229 1 0.0 3.826263905 8.07766819 27.169933319
230 1 0.0 3.826263905 8.07766819 23.664134979
231 1 0.0 3.826263905 8.07766819 20.158336639
232 1 0.0 3.826263905 8.07766819 16.652540207
233 1 0.0 4.676544666 11.478792191 27.169933319
234 1 0.0 4.676544666 11.478792191 23.664134979
235 1 0.0 4.676544666 11.478792191 20.158336639
236 1 0.0 4.676544666 11.478792191 16.652540207
237 1 0.0 5.526826382 0.425140858 27.169933319
238 1 0.0 5.526826382 0.425140858 23.664134979
239 1 0.0 5.526826382 0.425140858 20.158336639
240 1 0.0 5.526826382 0.425140858 16.652540207
241 1 0.0 6.377106667 3.826263905 27.169933319
242 1 0.0 6.377106667 3.826263905 23.664134979
243 1 0.0 6.377106667 3.826263905 20.158336639
244 1 0.0 6.377106667 3.826263905 16.652540207
245 1 0.0 7.227387428 7.227387428 27.169933319
246 1 0.0 7.227387428 7.227387428 23.664134979
247 1 0.0 7.227387428 7.227387428 20.158336639
248 1 0.0 7.227387428 7.227387428 16.652540207
249 1 0.0 8.07766819 10.628511429 27.169933319
250 1 0.0 8.07766819 10.628511429 23.664134979
251 1 0.0 8.07766819 10.628511429 20.158336639
252 1 0.0 8.07766819 10.628511429 16.652540207
253 1 0.0 8.927948952 14.029634476 27.169933319
254 1 0.0 8.927948952 14.029634476 23.664134979
255 1 0.0 8.927948952 14.029634476 20.158336639
256 1 0.0 8.927948952 14.029634476 16.652540207
257 1 0.0 9.778230667 2.975983143 27.169933319
258 1 0.0 9.778230667 2.975983143 23.664134979
259 1 0.0 9.778230667 2.975983143 20.158336639
260 1 0.0 9.778230667 2.975983143 16.652540207
261 1 0.0 10.628511429 6.377106667 27.169933319
262 1 0.0 10.628511429 6.377106667 23.664134979
263 1 0.0 10.628511429 6.377106667 20.158336639
264 1 0.0 10.628511429 6.377106667 16.652540207
265 1 0.0 11.478792191 9.778230667 27.169933319
266 1 0.0 11.478792191 9.778230667 23.664134979
267 1 0.0 11.478792191 9.778230667 20.158336639
268 1 0.0 11.478792191 9.778230667 16.652540207
269 1 0.0 12.329072952 13.179353714 27.169933319
270 1 0.0 12.329072952 13.179353714 23.664134979
271 1 0.0 12.329072952 13.179353714 20.158336639
272 1 0.0 12.329072952 13.179353714 16.652540207
273 2 0.0 14.449332237 14.449332237 0.876449466
274 2 0.0 14.449332237 14.449332237 4.382246971
275 2 0.0 14.449332237 14.449332237 7.888044834
276 2 0.0 14.449332237 14.449332237 11.393842697
277 2 0.0 14.449332237 3.716145515 0.876449466
278 2 0.0 14.449332237 3.716145515 4.382246971
279 2 0.0 14.449332237 3.716145515 7.888044834
280 2 0.0 14.449332237 3.716145515 11.393842697
281 2 0.0 14.449332237 7.221943855 0.876449466
282 2 0.0 14.449332237 7.221943855 4.382246971
283 2 0.0 14.449332237 7.221943855 7.888044834
284 2 0.0 14.449332237 7.221943855 11.393842697
285 2 0.0 14.449332237 10.727741241 0.876449466
286 2 0.0 14.449332237 10.727741241 4.382246971
287 2 0.0 14.449332237 10.727741241 7.888044834
288 2 0.0 14.449332237 10.727741241 11.393842697
289 2 0.0 3.716145515 14.449332237 0.876449466
290 2 0.0 3.716145515 14.449332237 4.382246971
291 2 0.0 3.716145515 14.449332237 7.888044834
292 2 0.0 3.716145515 14.449332237 11.393842697
293 2 0.0 3.716145515 3.716145515 0.876449466
294 2 0.0 3.716145515 3.716145515 4.382246971
295 2 0.0 3.716145515 3.716145515 7.888044834
296 2 0.0 3.716145515 3.716145515 11.393842697
297 2 0.0 3.716145515 7.221943855 0.876449466
298 2 0.0 3.716145515 7.221943855 4.382246971
299 2 0.0 3.716145515 7.221943855 7.888044834
300 2 0.0 3.716145515 7.221943855 11.393842697
301 2 0.0 3.716145515 10.727741241 0.876449466
302 2 0.0 3.716145515 10.727741241 4.382246971
303 2 0.0 3.716145515 10.727741241 7.888044834
304 2 0.0 3.716145515 10.727741241 11.393842697
305 2 0.0 7.221943855 14.449332237 0.876449466
306 2 0.0 7.221943855 14.449332237 4.382246971
307 2 0.0 7.221943855 14.449332237 7.888044834
308 2 0.0 7.221943855 14.449332237 11.393842697
309 2 0.0 7.221943855 3.716145515 0.876449466
310 2 0.0 7.221943855 3.716145515 4.382246971
311 2 0.0 7.221943855 3.716145515 7.888044834
312 2 0.0 7.221943855 3.716145515 11.393842697
313 2 0.0 7.221943855 7.221943855 0.876449466
314 2 0.0 7.221943855 7.221943855 4.382246971
315 2 0.0 7.221943855 7.221943855 7.888044834
316 2 0.0 7.221943855 7.221943855 11.393842697
317 2 0.0 7.221943855 10.727741241 0.876449466
318 2 0.0 7.221943855 10.727741241 4.382246971
319 2 0.0 7.221943855 10.727741241 7.888044834
320 2 0.0 7.221943855 10.727741241 11.393842697
321 2 0.0 10.727741241 14.449332237 0.876449466
322 2 0.0 10.727741241 14.449332237 4.382246971
323 2 0.0 10.727741241 14.449332237 7.888044834
324 2 0.0 10.727741241 14.449332237 11.393842697
325 2 0.0 10.727741241 3.716145515 0.876449466
326 2 0.0 10.727741241 3.716145515 4.382246971
327 2 0.0 10.727741241 3.716145515 7.888044834
328 2 0.0 10.727741241 3.716145515 11.393842697
329 2 0.0 10.727741241 7.221943855 0.876449466
330 2 0.0 10.727741241 7.221943855 4.382246971
331 2 0.0 10.727741241 7.221943855 7.888044834
332 2 0.0 10.727741241 7.221943855 11.393842697
333 2 0.0 10.727741241 10.727741241 0.876449466
334 2 0.0 10.727741241 10.727741241 4.382246971
335 2 0.0 10.727741241 10.727741241 7.888044834
336 2 0.0 10.727741241 10.727741241 11.393842697
337 2 0.0 14.449332237 1.963246822 2.629348278
338 2 0.0 14.449332237 1.963246822 6.135146141
339 2 0.0 14.449332237 1.963246822 9.640943527
340 2 0.0 14.449332237 1.963246822 13.146741867
341 2 0.0 14.449332237 5.469044209 2.629348278
342 2 0.0 14.449332237 5.469044209 6.135146141
343 2 0.0 14.449332237 5.469044209 9.640943527
344 2 0.0 14.449332237 5.469044209 13.146741867
345 2 0.0 14.449332237 8.974842072 2.629348278
346 2 0.0 14.449332237 8.974842072 6.135146141
347 2 0.0 14.449332237 8.974842072 9.640943527
348 2 0.0 14.449332237 8.974842072 13.146741867
349 2 0.0 14.449332237 12.480641365 2.629348278
350 2 0.0 14.449332237 12.480641365 6.135146141
351 2 0.0 14.449332237 12.480641365 9.640943527
352 2 0.0 14.449332237 12.480641365 13.146741867
353 2 0.0 3.716145515 1.963246822 2.629348278
354 2 0.0 3.716145515 1.963246822 6.135146141
355 2 0.0 3.716145515 1.963246822 9.640943527
356 2 0.0 3.716145515 1.963246822 13.146741867
357 2 0.0 3.716145515 5.469044209 2.629348278
358 2 0.0 3.716145515 5.469044209 6.135146141
359 2 0.0 3.716145515 5.469044209 9.640943527
360 2 0.0 3.716145515 5.469044209 13.146741867
361 2 0.0 3.716145515 8.974842072 2.629348278
362 2 0.0 3.716145515 8.974842072 6.135146141
363 2 0.0 3.716145515 8.974842072 9.640943527
364 2 0.0 3.716145515 8.974842072 13.146741867
365 2 0.0 3.716145515 12.480641365 2.629348278
366 2 0.0 3.716145515 12.480641365 6.135146141
367 2 0.0 3.716145515 12.480641365 9.640943527
368 2 0.0 3.716145515 12.480641365 13.146741867
369 2 0.0 7.221943855 1.963246822 2.629348278
370 2 0.0 7.221943855 1.963246822 6.135146141
371 2 0.0 7.221943855 1.963246822 9.640943527
372 2 0.0 7.221943855 1.963246822 13.146741867
373 2 0.0 7.221943855 5.469044209 2.629348278
374 2 0.0 7.221943855 5.469044209 6.135146141
375 2 0.0 7.221943855 5.469044209 9.640943527
376 2 0.0 7.221943855 5.469044209 13.146741867
377 2 0.0 7.221943855 8.974842072 2.629348278
378 2 0.0 7.221943855 8.974842072 6.135146141
379 2 0.0 7.221943855 8.974842072 9.640943527
380 2 0.0 7.221943855 8.974842072 13.146741867
381 2 0.0 7.221943855 12.480641365 2.629348278
382 2 0.0 7.221943855 12.480641365 6.135146141
383 2 0.0 7.221943855 12.480641365 9.640943527
384 2 0.0 7.221943855 12.480641365 13.146741867
385 2 0.0 10.727741241 1.963246822 2.629348278
386 2 0.0 10.727741241 1.963246822 6.135146141
387 2 0.0 10.727741241 1.963246822 9.640943527
388 2 0.0 10.727741241 1.963246822 13.146741867
389 2 0.0 10.727741241 5.469044209 2.629348278
390 2 0.0 10.727741241 5.469044209 6.135146141
391 2 0.0 10.727741241 5.469044209 9.640943527
392 2 0.0 10.727741241 5.469044209 13.146741867
393 2 0.0 10.727741241 8.974842072 2.629348278
394 2 0.0 10.727741241 8.974842072 6.135146141
395 2 0.0 10.727741241 8.974842072 9.640943527
396 2 0.0 10.727741241 8.974842072 13.146741867
397 2 0.0 10.727741241 12.480641365 2.629348278
398 2 0.0 10.727741241 12.480641365 6.135146141
399 2 0.0 10.727741241 12.480641365 9.640943527
400 2 0.0 10.727741241 12.480641365 13.146741867
401 2 0.0 1.963246822 14.449332237 2.629348278
402 2 0.0 1.963246822 14.449332237 6.135146141
403 2 0.0 1.963246822 14.449332237 9.640943527
404 2 0.0 1.963246822 14.449332237 13.146741867
405 2 0.0 1.963246822 3.716145515 2.629348278
406 2 0.0 1.963246822 3.716145515 6.135146141
407 2 0.0 1.963246822 3.716145515 9.640943527
408 2 0.0 1.963246822 3.716145515 13.146741867
409 2 0.0 1.963246822 7.221943855 2.629348278
410 2 0.0 1.963246822 7.221943855 6.135146141
411 2 0.0 1.963246822 7.221943855 9.640943527
412 2 0.0 1.963246822 7.221943855 13.146741867
413 2 0.0 1.963246822 10.727741241 2.629348278
414 2 0.0 1.963246822 10.727741241 6.135146141
415 2 0.0 1.963246822 10.727741241 9.640943527
416 2 0.0 1.963246822 10.727741241 13.146741867
417 2 0.0 5.469044209 14.449332237 2.629348278
418 2 0.0 5.469044209 14.449332237 6.135146141
419 2 0.0 5.469044209 14.449332237 9.640943527
420 2 0.0 5.469044209 14.449332237 13.146741867
421 2 0.0 5.469044209 3.716145515 2.629348278
422 2 0.0 5.469044209 3.716145515 6.135146141
423 2 0.0 5.469044209 3.716145515 9.640943527
424 2 0.0 5.469044209 3.716145515 13.146741867
425 2 0.0 5.469044209 7.221943855 2.629348278
426 2 0.0 5.469044209 7.221943855 6.135146141
427 2 0.0 5.469044209 7.221943855 9.640943527
428 2 0.0 5.469044209 7.221943855 13.146741867
429 2 0.0 5.469044209 10.727741241 2.629348278
430 2 0.0 5.469044209 10.727741241 6.135146141
431 2 0.0 5.469044209 10.727741241 9.640943527
432 2 0.0 5.469044209 10.727741241 13.146741867
433 2 0.0 8.974842072 14.449332237 2.629348278
434 2 0.0 8.974842072 14.449332237 6.135146141
435 2 0.0 8.974842072 14.449332237 9.640943527
436 2 0.0 8.974842072 14.449332237 13.146741867
437 2 0.0 8.974842072 3.716145515 2.629348278
438 2 0.0 8.974842072 3.716145515 6.135146141
439 2 0.0 8.974842072 3.716145515 9.640943527
440 2 0.0 8.974842072 3.716145515 13.146741867
441 2 0.0 8.974842072 7.221943855 2.629348278
442 2 0.0 8.974842072 7.221943855 6.135146141
443 2 0.0 8.974842072 7.221943855 9.640943527
444 2 0.0 8.974842072 7.221943855 13.146741867
445 2 0.0 8.974842072 10.727741241 2.629348278
446 2 0.0 8.974842072 10.727741241 6.135146141
447 2 0.0 8.974842072 10.727741241 9.640943527
448 2 0.0 8.974842072 10.727741241 13.146741867
449 2 0.0 12.480641365 14.449332237 2.629348278
450 2 0.0 12.480641365 14.449332237 6.135146141
451 2 0.0 12.480641365 14.449332237 9.640943527
452 2 0.0 12.480641365 14.449332237 13.146741867
453 2 0.0 12.480641365 3.716145515 2.629348278
454 2 0.0 12.480641365 3.716145515 6.135146141
455 2 0.0 12.480641365 3.716145515 9.640943527
456 2 0.0 12.480641365 3.716145515 13.146741867
457 2 0.0 12.480641365 7.221943855 2.629348278
458 2 0.0 12.480641365 7.221943855 6.135146141
459 2 0.0 12.480641365 7.221943855 9.640943527
460 2 0.0 12.480641365 7.221943855 13.146741867
461 2 0.0 12.480641365 10.727741241 2.629348278
462 2 0.0 12.480641365 10.727741241 6.135146141
463 2 0.0 12.480641365 10.727741241 9.640943527
464 2 0.0 12.480641365 10.727741241 13.146741867
465 2 0.0 1.963246822 1.963246822 0.876449466
466 2 0.0 1.963246822 1.963246822 4.382246971
467 2 0.0 1.963246822 1.963246822 7.888044834
468 2 0.0 1.963246822 1.963246822 11.393842697
469 2 0.0 1.963246822 5.469044209 0.876449466
470 2 0.0 1.963246822 5.469044209 4.382246971
471 2 0.0 1.963246822 5.469044209 7.888044834
472 2 0.0 1.963246822 5.469044209 11.393842697
473 2 0.0 1.963246822 8.974842072 0.876449466
474 2 0.0 1.963246822 8.974842072 4.382246971
475 2 0.0 1.963246822 8.974842072 7.888044834
476 2 0.0 1.963246822 8.974842072 11.393842697
477 2 0.0 1.963246822 12.480641365 0.876449466
478 2 0.0 1.963246822 12.480641365 4.382246971
479 2 0.0 1.963246822 12.480641365 7.888044834
480 2 0.0 1.963246822 12.480641365 11.393842697
481 2 0.0 5.469044209 1.963246822 0.876449466
482 2 0.0 5.469044209 1.963246822 4.382246971
483 2 0.0 5.469044209 1.963246822 7.888044834
484 2 0.0 5.469044209 1.963246822 11.393842697
485 2 0.0 5.469044209 5.469044209 0.876449466
486 2 0.0 5.469044209 5.469044209 4.382246971
487 2 0.0 5.469044209 5.469044209 7.888044834
488 2 0.0 5.469044209 5.469044209 11.393842697
489 2 0.0 5.469044209 8.974842072 0.876449466
490 2 0.0 5.469044209 8.974842072 4.382246971
491 2 0.0 5.469044209 8.974842072 7.888044834
492 2 0.0 5.469044209 8.974842072 11.393842697
493 2 0.0 5.469044209 12.480641365 0.876449466
494 2 0.0 5.469044209 12.480641365 4.382246971
495 2 0.0 5.469044209 12.480641365 7.888044834
496 2 0.0 5.469044209 12.480641365 11.393842697
497 2 0.0 8.974842072 1.963246822 0.876449466
498 2 0.0 8.974842072 1.963246822 4.382246971
499 2 0.0 8.974842072 1.963246822 7.888044834
500 2 0.0 8.974842072 1.963246822 11.393842697
501 2 0.0 8.974842072 5.469044209 0.876449466
502 2 0.0 8.974842072 5.469044209 4.382246971
503 2 0.0 8.974842072 5.469044209 7.888044834
504 2 0.0 8.974842072 5.469044209 11.393842697
505 2 0.0 8.974842072 8.974842072 0.876449466
506 2 0.0 8.974842072 8.974842072 4.382246971
507 2 0.0 8.974842072 8.974842072 7.888044834
508 2 0.0 8.974842072 8.974842072 11.393842697
509 2 0.0 8.974842072 12.480641365 0.876449466
510 2 0.0 8.974842072 12.480641365 4.382246971
511 2 0.0 8.974842072 12.480641365 7.888044834
512 2 0.0 8.974842072 12.480641365 11.393842697
513 2 0.0 12.480641365 1.963246822 0.876449466
514 2 0.0 12.480641365 1.963246822 4.382246971
515 2 0.0 12.480641365 1.963246822 7.888044834
516 2 0.0 12.480641365 1.963246822 11.393842697
517 2 0.0 12.480641365 5.469044209 0.876449466
518 2 0.0 12.480641365 5.469044209 4.382246971
519 2 0.0 12.480641365 5.469044209 7.888044834
520 2 0.0 12.480641365 5.469044209 11.393842697
521 2 0.0 12.480641365 8.974842072 0.876449466
522 2 0.0 12.480641365 8.974842072 4.382246971
523 2 0.0 12.480641365 8.974842072 7.888044834
524 2 0.0 12.480641365 8.974842072 11.393842697
525 2 0.0 12.480641365 12.480641365 0.876449466
526 2 0.0 12.480641365 12.480641365 4.382246971
527 2 0.0 12.480641365 12.480641365 7.888044834
528 2 0.0 12.480641365 12.480641365 11.393842697
