#Input file for lammps
 
4030 atoms
5 atom types
 
0.0 30.5506 xlo xhi
0.0 30.5506 ylo yhi
0.0 56.9727 zlo zhi
 
Masses
 
1 28.06
2 1.008
3 14
4 12
5 6.941
 
Atoms
 
      1 1 0      27.3769      18.7134      1.52224
      2 1 0      28.9668      17.5256      2.75272
      3 1 0      28.8098      21.9853     0.477955
      4 1 0      28.4067      15.3125      2.94251
      5 1 0      7.09893      19.5124     0.824385
      6 1 0     0.458585      21.9819     0.645635
      7 1 0      10.8586      22.8564      56.6948
      8 1 0      7.93307      26.0942      56.9631
      9 1 0      13.6649      24.9028     0.650935
     10 1 0      12.1418      9.91892     0.619145
     11 1 0      17.4189      1.20425     0.839945
     12 1 0      19.1495      1.25643      2.05229
     13 1 0      1.85434      20.0964      1.73418
     14 1 0      5.57444      21.0847     0.890495
     15 1 0      12.3442      27.0671     0.974985
     16 1 0      13.4058      28.9074      1.01012
     17 1 0         16.7      9.19857      2.34112
     18 1 0      9.82565      26.9266      1.45649
     19 1 0      14.3258      6.61463      1.07113
     20 1 0      29.8587      25.3494      1.51675
     21 1 0      12.4761      19.4214     0.579305
     22 1 0      13.7181      11.6501       1.1238
     23 1 0      22.8575         5.14       1.5015
     24 1 0      21.8826      28.5404     0.884945
     25 1 0      22.8547      9.11952       1.2807
     26 1 0      12.0123      0.17599      1.20495
     27 1 0      24.2935      18.7527      1.62122
     28 1 0      7.04699      15.7603      1.52018
     29 1 0      10.8157      20.6987     0.844115
     30 1 0      19.1547      19.3373      3.10189
     31 1 0        16.34      3.33923       1.1986
     32 1 0      3.20283      24.9929     0.967385
     33 1 0      28.4297      2.97753      1.05509
     34 1 0      20.3064      17.5565      1.93108
     35 1 0      8.75726      8.38182      1.15013
     36 1 0      13.8498      15.4043      1.13383
     37 1 0      10.6617      4.44568       1.1686
     38 1 0      4.55121      28.2331      2.25664
     39 1 0      25.9811      6.81591      1.31173
     40 1 0      29.2955       5.3014      1.33177
     41 1 0      24.1478      21.0826      1.66861
     42 1 0      25.9297      11.0303      1.63589
     43 1 0      12.3857      23.1255      1.45846
     44 1 0     0.785935      18.1038      2.56747
     45 1 0      2.45486      26.7632      1.91223
     46 1 0      25.9815      17.9091      2.93913
     47 1 0      9.96335      10.5458      1.37028
     48 1 0      1.31218      15.9454      1.65952
     49 1 0      15.6059      24.9394      1.48986
     50 1 0      8.02094      1.42546      1.44294
     51 1 0      30.3904      29.1381      1.11042
     52 1 0      9.40165      15.2681      1.05607
     53 1 0      30.1429      12.1912      1.63956
     54 1 0      20.5195      12.1787      2.67835
     55 1 0      26.1564      2.74128      1.83356
     56 1 0      24.9176      14.3719      1.76337
     57 1 0      4.12662      20.1401      2.53498
     58 1 0      17.6493      5.28169      1.87644
     59 1 0      21.6609      7.28061      1.61085
     60 1 0      26.2573      15.5185      3.19968
     61 1 0      8.58294      23.7038     0.277355
     62 1 0      16.3516      7.19356      1.13088
     63 1 0      10.1911       13.321      1.39689
     64 1 0      18.3685      9.31567      3.66841
     65 1 0      12.4734      8.06515       1.7085
     66 1 0      17.9538      14.5698      1.95063
     67 1 0       24.984      29.3294      3.01057
     68 1 0      15.9765      21.1376      1.76703
     69 1 0      30.4513      14.0955      2.64744
     70 1 0      1.03415       24.009      1.76842
     71 1 0     0.411745       27.199     0.484485
     72 1 0      20.0989      27.0405      1.61452
     73 1 0      25.0827      8.87741      2.14812
     74 1 0      24.9129      4.90678      2.06002
     75 1 0      7.02255      17.9511      2.28005
     76 1 0      10.4088      6.84413      1.86835
     77 1 0      20.9897       30.352      1.50599
     78 1 0      8.45563      3.43913      1.94639
     79 1 0      12.6586      13.4034      1.74917
     80 1 0      24.6307       0.7159      1.66644
     81 1 0      6.27355      26.3477      1.72405
     82 1 0      27.8304       20.978      2.08873
     83 1 0      26.2565      24.4619      2.18113
     84 1 0      20.1736      21.4841      2.31718
     85 1 0      1.43362      1.98081      1.77073
     86 1 0      3.90584      11.6413      2.33729
     87 1 0      6.42786      4.69515      1.92461
     88 1 0      13.6165      21.1199      1.88935
     89 1 0      12.4619      17.3413        1.835
     90 1 0       27.919      24.2246     0.375765
     91 1 0      15.2543      11.1298      2.75506
     92 1 0      4.20876      13.6841      2.84003
     93 1 0      22.4656      11.2026      2.62866
     94 1 0      19.5145      3.58505      2.90559
     95 1 0      9.73738      0.03363      2.17238
     96 1 0      24.5572      12.3571      2.70149
     97 1 0        22.34      17.7514      2.61469
     98 1 0      4.73041      18.2192      3.16437
     99 1 0       6.9257      22.8112      1.94165
    100 1 0      18.7832      23.1269      3.26803
    101 1 0      4.28841      30.1456      1.32617
    102 1 0      28.2408      10.9728      2.53389
    103 1 0      27.8317      6.54816      2.48726
    104 1 0      15.6043      15.4089      2.30248
    105 1 0      17.0367       19.379      3.14622
    106 1 0      16.5443      23.0132      2.59119
    107 1 0      23.6181      27.9204       2.4045
    108 1 0      15.4757      28.5594      2.20039
    109 1 0       22.358      22.1534      2.89683
    110 1 0       6.2751      14.6556      3.16883
    111 1 0      22.5047      1.25052      2.43133
    112 1 0      19.4804      15.7575      3.13589
    113 1 0      12.9733      1.40624      2.64653
    114 1 0      1.76992      30.4465      1.95815
    115 1 0      21.1128      14.3679      3.45504
    116 1 0      17.2097      29.9395      2.48332
    117 1 0      21.6468      3.51239      2.88612
    118 1 0      12.0887      3.76901      2.60922
    119 1 0      25.9708      22.0809      2.90894
    120 1 0      5.91564      1.03081      2.56693
    121 1 0      14.8501      3.07656       2.7101
    122 1 0      2.73914      5.39541      2.65287
    123 1 0      7.04105      8.50841      2.83446
    124 1 0      5.28526      24.5842       2.3646
    125 1 0      1.65406      11.7115      3.05119
    126 1 0      19.1005      11.2254      4.33819
    127 1 0      20.2336      25.0858      3.03216
    128 1 0      16.5769      13.2016      2.91791
    129 1 0      12.1406      26.5081       3.2587
    130 1 0      24.2328      25.7602      3.04169
    131 1 0     0.629675      5.67874      2.83936
    132 1 0      13.8744      5.25036       2.8691
    133 1 0      23.1537      15.4707      2.97957
    134 1 0       2.6157      16.9924      3.61695
    135 1 0      29.7783       2.3132      2.65772
    136 1 0     0.850975      21.8174      3.07207
    137 1 0       11.319      24.3434      3.00827
    138 1 0      9.02913      28.5009      2.65278
    139 1 0      28.9789      8.61382      2.76067
    140 1 0      15.6813      26.6251      3.08013
    141 1 0      10.5826      16.7182      2.72521
    142 1 0      22.5311      24.5097      3.29418
    143 1 0      19.3495      28.9565      2.95291
    144 1 0      6.24988      6.41226      3.48901
    145 1 0      27.0412      28.1736      3.18715
    146 1 0      27.9176      17.3399      4.94658
    147 1 0      2.86076      3.27465      3.17711
    148 1 0       9.2486      24.7119      2.39527
    149 1 0      28.9205      29.1903      3.03118
    150 1 0      5.18232      2.97173      3.30328
    151 1 0      29.8819      18.5895      4.22738
    152 1 0      2.69708      21.3401      4.14924
    153 1 0      15.6907      17.3906       3.6889
    154 1 0      9.79852      20.4812      3.16445
    155 1 0       27.071      25.7406      3.68845
    156 1 0      5.55274      10.2524      3.52007
    157 1 0      19.4417      7.30992      4.62338
    158 1 0      21.4976      7.17878      3.90339
    159 1 0     0.253205      7.95299      3.63854
    160 1 0      1.73314      26.4203      4.06288
    161 1 0      9.08409      18.4714      3.47348
    162 1 0      17.9025      5.66929      4.17431
    163 1 0      26.4024      1.87047      3.78573
    164 1 0      6.92488      28.0175      3.45681
    165 1 0      29.5328      20.8278      3.84048
    166 1 0      2.32815       14.589      3.29977
    167 1 0      29.2013      13.9304      4.81973
    168 1 0      27.8741      15.3474      5.79678
    169 1 0      9.69957      12.6722      3.53905
    170 1 0      9.95539      10.4873      3.73601
    171 1 0      16.2086      6.93911      5.18433
    172 1 0      13.5693      18.0589      3.66555
    173 1 0      13.2284      8.65299          3.9
    174 1 0      9.39982      3.92762      4.19503
    175 1 0      28.5247      0.84309      3.94518
    176 1 0      18.8253      22.8074      5.60217
    177 1 0      15.5637      8.62952      4.23377
    178 1 0      7.77773      21.7758      3.61924
    179 1 0      6.69224       18.101      4.79415
    180 1 0     0.710265       13.627      4.89288
    181 1 0      1.51839      17.8817        5.119
    182 1 0      1.67687      9.47933      4.02869
    183 1 0       9.8871       6.2889      4.10874
    184 1 0      30.3702      27.8938      4.49714
    185 1 0      24.8109      8.87785      4.53151
    186 1 0      10.2061      0.65781      4.45521
    187 1 0      1.29581       24.033       4.1737
    188 1 0      24.9314      5.19002      4.51433
    189 1 0      21.3383      30.0848      3.78035
    190 1 0      13.1529      13.0918      4.06766
    191 1 0      18.4261      20.6308      6.33918
    192 1 0      27.8145       11.875      4.56477
    193 1 0      29.5069       25.756      3.94422
    194 1 0      13.2645      20.2696      3.99621
    195 1 0      7.68616      13.3022      4.46155
    196 1 0      6.58127      30.3277      4.23184
    197 1 0      22.3603      1.71979       4.4078
    198 1 0      22.1696       18.956      4.66575
    199 1 0      13.8727      26.7319      4.45474
    200 1 0      18.6787       1.8519      4.51354
    201 1 0      3.97557      6.58101      4.46251
    202 1 0      30.4926       3.8904      4.30652
    203 1 0       11.236      2.75493      4.43379
    204 1 0      16.8395      0.49071      4.41974
    205 1 0      24.5215      0.63596      4.46389
    206 1 0      19.3069      26.9166      4.31084
    207 1 0      22.4809      5.09228      4.54716
    208 1 0      21.8413      10.9357      4.98993
    209 1 0      25.2039      12.3693       4.8693
    210 1 0      25.4151      21.2406      4.82055
    211 1 0      3.62325      28.7894      4.50183
    212 1 0      8.16928      9.68693      4.54577
    213 1 0      23.0213      21.1416      4.71962
    214 1 0       15.816      2.31411      4.64292
    215 1 0      27.5281      5.95671      4.81764
    216 1 0      13.9346      6.35603       4.6761
    217 1 0      14.6897      14.8045      4.52442
    218 1 0      13.4185       0.1013      4.64694
    219 1 0      22.8861      28.8152      4.29375
    220 1 0      3.80581      8.91456      4.58343
    221 1 0      19.9979      11.0867      6.46938
    222 1 0      8.10016       7.2635      4.83948
    223 1 0      18.8014      16.7998      5.21108
    224 1 0      15.2021      29.2563      4.41216
    225 1 0      22.4511      14.3959      5.46788
    226 1 0      15.3935      23.1393      4.72389
    227 1 0      10.5485      27.7848      4.39896
    228 1 0      29.9982      17.2963      6.31327
    229 1 0      1.49178      29.6841      4.28352
    230 1 0      13.5767       24.331      4.87981
    231 1 0      25.8612           19      5.08469
    232 1 0      22.6595       8.7983       5.1658
    233 1 0       11.394      20.9555      4.81119
    234 1 0       17.137       26.348      4.86691
    235 1 0       4.6837      24.8951      4.75716
    236 1 0      6.57855      20.5937       5.3484
    237 1 0      28.6525      9.48361      4.90175
    238 1 0      21.3042      25.2759      5.32691
    239 1 0      11.2058      15.6941      4.85466
    240 1 0      26.3412      3.77716      5.22874
    241 1 0      17.0906      12.4306      4.72091
    242 1 0      11.7346       9.5395      4.97654
    243 1 0      19.8842      18.9066      5.41556
    244 1 0      11.5076      23.2567      5.01365
    245 1 0      24.0875      15.7262      5.21042
    246 1 0      6.52792      11.5718      5.00955
    247 1 0      25.5481      7.17046      5.62627
    248 1 0      11.2378      13.5229      5.03017
    249 1 0      30.1876      28.7239      6.53268
    250 1 0      11.7159      7.13715      5.34926
    251 1 0      23.8539      25.4958      5.47037
    252 1 0      16.6795      16.5406      5.61838
    253 1 0     0.388185      6.17858      5.40651
    254 1 0      13.7686      10.9238      4.81219
    255 1 0      1.64675      2.92289      5.22469
    256 1 0       25.861      14.5154      5.41266
    257 1 0      4.61716      21.1861      5.91777
    258 1 0      3.40944       26.707      5.41692
    259 1 0      18.0921      3.88715      5.34347
    260 1 0      26.3358      10.3674      5.60428
    261 1 0      13.3237      16.5234      5.13521
    262 1 0      26.4054      28.5797      5.46328
    263 1 0      20.2675      0.96628      5.47567
    264 1 0      23.8922      18.0785      5.79117
    265 1 0      18.9624      8.99506      6.48158
    266 1 0       11.615      29.6272      5.46767
    267 1 0      1.35428      11.4389      5.48257
    268 1 0       8.3279      0.68648      5.48778
    269 1 0      6.04455      5.72081      5.44348
    270 1 0      23.2146      12.3179      5.95378
    271 1 0      3.32056       23.333      5.32484
    272 1 0      29.9991      24.0427      5.57027
    273 1 0      5.90745      3.53896      5.51077
    274 1 0      9.69269      24.2591      5.32311
    275 1 0      28.6547      4.42982      5.67438
    276 1 0      4.37789      14.3918      5.33423
    277 1 0      2.22186      15.6445      5.62608
    278 1 0     0.093215      15.3412      6.63687
    279 1 0      24.5236      29.6242      5.86658
    280 1 0      20.5626      23.7232      6.56147
    281 1 0      16.9395      8.80884      6.46017
    282 1 0      29.5859      21.8376      5.70768
    283 1 0      6.37167      15.7208      5.41172
    284 1 0      8.16578      2.95406      5.77358
    285 1 0      14.8352      21.0402      5.69097
    286 1 0      7.08132      26.8931      5.58207
    287 1 0      19.4196      29.3429      5.64727
    288 1 0      20.0817      14.8016      5.59938
    289 1 0      4.96748      29.9905      5.82547
    290 1 0      30.4398      9.62932      5.89058
    291 1 0       26.025      26.2561      6.01907
    292 1 0      15.8042      10.6914      5.54558
    293 1 0      16.4452      19.5901      5.51128
    294 1 0      7.97497      23.0681      5.58218
    295 1 0      14.0849      1.60583      6.03078
    296 1 0      9.27957      18.3105      5.83957
    297 1 0      16.3995      14.2424      6.17127
    298 1 0      29.7161       11.746      6.21258
    299 1 0      7.96673      14.7652      6.43997
    300 1 0       22.787      27.3922      6.20038
    301 1 0       27.625       24.568      5.90597
    302 1 0      18.7286      13.3156      6.23787
    303 1 0      16.1547      27.9952      6.18257
    304 1 0      2.12567      19.9038      5.98597
    305 1 0      9.45078      26.5517      5.80947
    306 1 0      16.9204      24.2818      6.03948
    307 1 0      17.2146      29.7657      6.32437
    308 1 0      2.49627      6.18197      6.26187
    309 1 0      27.7442      7.83467      6.25708
    310 1 0     0.891045      0.78978      6.02888
    311 1 0      6.49172      24.8498      6.06757
    312 1 0      26.3661      22.6944      6.53167
    313 1 0      22.4539      22.2672      6.75448
    314 1 0      29.0319       0.9451      6.27067
    315 1 0      20.4672      27.3452      6.46157
    316 1 0      4.71962      12.3529      6.41728
    317 1 0      28.1657      29.3883      6.85318
    318 1 0       13.575      25.4837      6.70008
    319 1 0      9.61717      16.1943      6.45718
    320 1 0      16.0193      3.47971      6.63168
    321 1 0      12.3522      3.02574      6.51337
    322 1 0      1.32513      26.8719      6.85757
    323 1 0      8.64876      8.72877      6.80387
    324 1 0      24.1316      23.6042      6.96528
    325 1 0      14.8974      5.31645      6.71558
    326 1 0      21.4731      4.53903      6.77067
    327 1 0      7.88035      19.3497      7.12498
    328 1 0      21.7603      2.27097      6.89548
    329 1 0      27.2563      19.0927      6.69358
    330 1 0      24.0611      1.70313      6.67227
    331 1 0      5.35933      28.0569      6.67877
    332 1 0      28.2725      17.8537      8.41498
    333 1 0      10.9323      19.8647      6.79627
    334 1 0      13.7549      27.8915      6.55277
    335 1 0       28.067      20.9774      7.08477
    336 1 0      16.0501      17.8224      7.25518
    337 1 0      3.84619      9.27709      6.96298
    338 1 0      2.90347      11.2365      7.02137
    339 1 0      2.51234      3.96716      6.99198
    340 1 0      19.2368      4.62166      7.25418
    341 1 0      20.1439      7.01379      7.00917
    342 1 0     0.403865      20.6165      7.17847
    343 1 0      7.55342      10.5068      6.98147
    344 1 0      7.53817      6.63789      7.20338
    345 1 0      27.8787      2.78568      7.42368
    346 1 0      29.2971      6.36443      6.93947
    347 1 0      22.4521      7.99838      7.32707
    348 1 0      10.9741       8.8256      7.47677
    349 1 0      18.7444      10.9804      9.58948
    350 1 0     0.442615      24.9245      7.33988
    351 1 0      25.3953      3.25624      7.33328
    352 1 0      13.9566      17.0963      7.29878
    353 1 0      18.3219      24.3854      8.05867
    354 1 0       12.303      10.9185      7.03597
    355 1 0      10.5849      30.4782      7.27158
    356 1 0      11.2352      24.8878      7.23088
    357 1 0       4.3849      2.91288      7.27128
    358 1 0      20.0916      19.2455      7.80427
    359 1 0      11.0103      12.6894      7.28597
    360 1 0      24.5882      7.10915      7.67547
    361 1 0      23.3015      16.1938      7.55818
    362 1 0      4.34474      15.8275      6.90048
    363 1 0      3.95797      19.7059      7.60778
    364 1 0      2.40237      23.6677      7.53108
    365 1 0      25.8806      10.7706      7.81077
    366 1 0      11.5206      6.35917      7.56647
    367 1 0      14.2955       11.283      7.39567
    368 1 0      8.31555      29.9894      7.57017
    369 1 0      4.11925      0.71434      7.55058
    370 1 0      26.4905      14.4372      7.79537
    371 1 0      5.54139      17.9387      7.00967
    372 1 0      7.91859       21.816      7.49017
    373 1 0      17.8941      16.4783      8.20818
    374 1 0      30.2301      14.4531      8.62107
    375 1 0      9.16809      3.36199      7.79408
    376 1 0      23.7664      18.6068      7.75988
    377 1 0      18.1947      20.6561      8.45378
    378 1 0      13.0207      4.84673      7.91068
    379 1 0      2.98014      17.9175      7.26508
    380 1 0      20.0783      0.52851      7.88037
    381 1 0       16.195      6.93147      7.74338
    382 1 0      23.6003      11.4091      8.16987
    383 1 0      8.10989      27.8027      7.63558
    384 1 0      15.4635      24.7225      7.93818
    385 1 0     0.199445      8.10669      7.73388
    386 1 0      21.4259      15.3917      7.57728
    387 1 0      23.6286      27.9281      8.06927
    388 1 0      2.47647      7.61503      7.86827
    389 1 0      14.6124      0.95062      7.97297
    390 1 0      25.8267      27.1556      8.29247
    391 1 0      29.4155       27.293      8.35437
    392 1 0      10.9828      2.10958      7.93088
    393 1 0      22.1172      20.3008      8.07188
    394 1 0      7.58188      13.5981      8.46908
    395 1 0      15.1984      13.4861      8.00768
    396 1 0      3.46109      27.0707      7.93457
    397 1 0      24.1574      30.3322      8.18828
    398 1 0      11.8872      28.8695      7.93058
    399 1 0      28.0977       25.639      8.08457
    400 1 0      20.1309      28.7051      7.94817
    401 1 0      26.3902      8.74624      8.04327
    402 1 0      9.47223      5.55327      8.19288
    403 1 0      1.83204      0.28513      7.89267
    404 1 0      10.3577      27.0606      7.99238
    405 1 0       20.026      25.6517      8.11388
    406 1 0      29.4816      12.2606      8.35557
    407 1 0      12.8045      18.9023      8.02148
    408 1 0      14.0361      20.6531      7.94998
    409 1 0      28.3267      15.6853      8.24377
    410 1 0      15.6631      9.56262      8.32687
    411 1 0      22.4329      5.70539      8.37228
    412 1 0      5.87484      9.53001      8.02928
    413 1 0      16.7239      30.4812      8.40757
    414 1 0      15.3418      27.0411      8.30718
    415 1 0      27.2614      12.3295      8.68778
    416 1 0      30.3183      18.5728      8.28388
    417 1 0      8.94364      11.9519      8.30208
    418 1 0      5.61557      12.5923      8.36008
    419 1 0      29.2431      4.48166      8.46847
    420 1 0      9.81855      21.2209      8.22917
    421 1 0      17.4393      14.1982      8.39827
    422 1 0      1.95886      21.7577      8.40687
    423 1 0      16.4851      2.43806      8.67277
    424 1 0      19.3019      12.6897      8.52417
    425 1 0      22.2084      9.55005      8.77828
    426 1 0      24.4532      4.98298      8.66418
    427 1 0       17.909      6.03864      8.64607
    428 1 0      19.6533      16.9634      7.31018
    429 1 0      25.8766      18.8334      8.61407
    430 1 0      1.44907      28.5221      8.59677
    431 1 0      28.0874      0.76834      8.83057
    432 1 0      13.8064      15.0779      8.66938
    433 1 0       6.0008      24.8138      8.47198
    434 1 0      27.1796      29.0063      8.81097
    435 1 0      26.9259      22.1371      8.80317
    436 1 0      10.6033      16.0025      8.34897
    437 1 0      24.7638       14.838      8.98517
    438 1 0      22.2696      1.26787      8.61507
    439 1 0      19.8363      9.27012      8.74907
    440 1 0      6.41634      7.29179      8.88118
    441 1 0       18.497      22.6573      9.59008
    442 1 0       24.267      24.4009      9.16698
    443 1 0     0.998495      3.71045      8.85928
    444 1 0      12.8474      0.33381      8.99157
    445 1 0      11.7729      14.2367      8.78748
    446 1 0      5.44416      28.0717      8.94887
    447 1 0      11.0954      23.3289      8.70078
    448 1 0      3.76324      24.9723      8.82408
    449 1 0      21.9351      29.4561      8.96578
    450 1 0      17.0696      18.1616      9.60807
    451 1 0      18.5745      1.30046      9.21438
    452 1 0      26.2619        1.994      9.22278
    453 1 0      9.30143      9.84609      9.14537
    454 1 0      20.9714      13.8647      9.14697
    455 1 0      28.8921      20.7098      9.30898
    456 1 0      1.68443      17.3217      9.06757
    457 1 0      18.8772      3.61021      9.31317
    458 1 0      4.38521      14.4873      8.86867
    459 1 0      1.87553       15.471      8.29007
    460 1 0      17.4556      26.2425      9.25078
    461 1 0      5.40991      3.51832      9.35068
    462 1 0       12.962      9.95579      9.23868
    463 1 0       7.6954      2.65836      9.34037
    464 1 0      7.49092      0.46623      9.36998
    465 1 0       12.557      7.51429      9.37738
    466 1 0      2.17627      11.4706      9.30428
    467 1 0      26.2063      25.6638      9.76367
    468 1 0      29.9761      24.5131      9.31198
    469 1 0      25.6385      0.06669      9.54278
    470 1 0      23.3144      13.0242      9.53078
    471 1 0      6.99428      17.6743      8.91807
    472 1 0      5.23639      30.4644      9.49447
    473 1 0      25.2893      7.44893      9.83507
    474 1 0      13.1641      22.3344      9.43967
    475 1 0      23.4587      26.2859      9.76928
    476 1 0      6.96631      22.9224      9.35807
    477 1 0      3.63445      20.6073      9.82457
    478 1 0      14.6312      7.69536      9.40997
    479 1 0       8.2888      15.9985      9.06108
    480 1 0      30.3638      22.1979      9.57537
    481 1 0      24.5065      17.0609      9.60127
    482 1 0      18.8078      27.7765      9.55027
    483 1 0      16.6078      28.8122      9.81247
    484 1 0      27.7587      23.7897      9.83757
    485 1 0      15.9162      20.1306      9.10667
    486 1 0      6.89504      26.6532      9.60347
    487 1 0      29.8851      8.89927      9.64198
    488 1 0      19.2796      7.29986      9.87138
    489 1 0      14.8456      23.7678      9.88997
    490 1 0     0.980145      1.69338      9.62867
    491 1 0     0.040155      11.0959      9.80428
    492 1 0      25.9701      20.4972      9.96717
    493 1 0      5.47698      10.6888      9.94378
    494 1 0      2.34165      13.5898      9.71557
    495 1 0      21.0464      25.8778      10.2419
    496 1 0      13.3191      4.11378      10.0446
    497 1 0      9.34342      26.7511      9.82607
    498 1 0      22.1677      21.0398      10.2309
    499 1 0      3.40187      18.5532      10.1111
    500 1 0      27.6461      8.54057      10.0446
    501 1 0       3.1979      6.61533      9.96687
    502 1 0      5.32325      5.51296      10.2008
    503 1 0      7.64034      9.07148      10.1791
    504 1 0      3.05727      27.6255        10.21
    505 1 0      11.7592      2.23686      10.1367
    506 1 0      21.1759      6.19729      10.3251
    507 1 0      8.97293      19.4675      9.69928
    508 1 0      10.3629       17.541      10.1555
    509 1 0      12.4287      28.8299      10.2804
    510 1 0      16.5896      10.3666      10.0549
    511 1 0       15.982      12.5839      10.1915
    512 1 0      12.4496      17.9895       10.233
    513 1 0      16.4932       22.031      10.3739
    514 1 0      15.5216      3.41293      10.4067
    515 1 0      16.8552      5.11947      10.5542
    516 1 0       28.412      28.2766       10.421
    517 1 0      14.2188      27.6621      10.4137
    518 1 0      11.2547      9.44068      10.3259
    519 1 0      23.4977      8.69856      10.6537
    520 1 0      9.32212      5.66633      10.5977
    521 1 0     0.276505      27.9737      10.5696
    522 1 0      27.9019      16.3257      10.6156
    523 1 0      5.77463      15.4704      10.1546
    524 1 0      28.7745      18.6784      10.7595
    525 1 0      29.3905      1.25764       10.514
    526 1 0      23.3357      23.2794      10.6528
    527 1 0      21.8598      2.38556      10.6733
    528 1 0      14.1196      16.3128       10.738
    529 1 0      25.2945      5.20875      10.8955
    530 1 0      19.4157       18.352      9.85647
    531 1 0      5.68555      21.3354       10.561
    532 1 0      26.9711      12.2391      11.0141
    533 1 0      1.72524      5.01791      10.6325
    534 1 0      20.0966      22.3431      10.9649
    535 1 0      20.5048      10.3448       11.242
    536 1 0      28.7021      5.09066      10.7546
    537 1 0      8.79389      12.1897      10.6343
    538 1 0      10.1905      24.6376      10.6008
    539 1 0      4.70256      1.83865       10.828
    540 1 0      20.5743       4.2012      10.9623
    541 1 0      13.0264      5.73827      11.5318
    542 1 0      20.2626      16.0782       10.032
    543 1 0     0.549355      25.8704      10.8976
    544 1 0      3.57967      10.3389      10.9017
    545 1 0       17.745      13.6369      11.1243
    546 1 0      25.7942      15.9129      11.0147
    547 1 0      7.56365      6.76821      11.0754
    548 1 0      24.0565       21.107      11.0497
    549 1 0      1.80567      21.9025       10.828
    550 1 0      16.0884      17.3665      11.2448
    551 1 0      5.25591      17.7228      10.6226
    552 1 0      10.2592      28.5146       11.078
    553 1 0      8.93667       30.501      11.2478
    554 1 0       17.626       24.598      10.9266
    555 1 0      2.84162      25.3953       10.972
    556 1 0      12.0201      13.5182      11.0825
    557 1 0      6.84734      19.5769      10.8122
    558 1 0      4.05772      29.3013      11.1436
    559 1 0      27.2074      6.49962      11.3262
    560 1 0      12.5437      11.1639      11.4087
    561 1 0      8.71722      23.1046      11.0455
    562 1 0      26.2432      3.10043      11.3464
    563 1 0      25.3327      13.6035      11.4817
    564 1 0      20.0723      27.5457       11.361
    565 1 0      21.7023      29.2126      11.2008
    566 1 0      15.2836       6.6707      11.3979
    567 1 0      11.0893      7.15308       11.389
    568 1 0     0.728235      15.2529       10.892
    569 1 0      9.90847      20.9872      10.8555
    570 1 0      21.2423      24.1227      11.6095
    571 1 0      19.8678       12.415      11.4916
    572 1 0      8.65047      3.43009      11.2671
    573 1 0      18.8822      0.66142         11.5
    574 1 0      21.6501      13.6127      11.4641
    575 1 0      26.9245      26.9187      11.6553
    576 1 0      12.7559      0.37031      11.4997
    577 1 0      2.46068      1.75081      11.4871
    578 1 0     0.438025      8.10227       11.345
    579 1 0      16.2666      8.83921       11.762
    580 1 0      23.3026      17.3666      11.5598
    581 1 0      10.3656      1.76107      11.6352
    582 1 0      12.1707      21.3456      11.4041
    583 1 0      13.8348      25.5124       11.317
    584 1 0      20.3227      19.9373       11.464