LAMMPS data file via write_data, version 22 Dec 2022, timestep = 4000

1848 atoms
3 atom types

0 20.1182 xlo xhi
0 20.3224 ylo yhi
0 93.7738 zlo zhi

Masses

1 52
2 55.84
3 16

Atoms # charge

96 2 0.01845841082538659 1.43704 6.09672 0 0 0 0
101 1 0.03520421172379588 0 6.09672 2.03208 0 0 0
106 2 0.009841962301052401 1.43704 6.09672 4.06416 0 0 0
136 2 0.02143033264509796 1.43704 2.03224 0 0 0 0
141 2 0.02276218263668395 0 4.06448 0 0 0 0
146 2 0.01094252430690201 1.43704 4.06448 2.03208 0 0 0
151 2 0.01761434047651253 0 4.06448 4.06416 0 0 0
156 2 0.008078644584393661 1.43704 4.06448 6.09717 0 0 0
161 1 0.03251080441534647 0 6.09672 6.09717 0 0 0
181 2 0.01649498610056058 0 0 0 0 0 0
186 2 0.01122984188940245 1.43704 0 2.03208 0 0 0
191 2 0.0164914162769778 0 2.03224 2.03208 0 0 0
196 2 0.01572995327137456 1.43704 2.03224 4.06416 0 0 0
201 2 0.01554383311932601 0 2.03224 6.09717 0 0 0
241 2 0.01599099477940244 0 0 4.06416 0 0 0
246 2 0.008456783562180603 1.43704 0 6.09717 0 0 0
346 2 0.01909290458449357 4.31113 6.09672 0 0 0 0
351 1 0.03139450450206197 2.87409 6.09672 2.03208 0 0 0
356 2 0.01336965923615628 4.31113 6.09672 4.06416 0 0 0
386 2 0.01606234360825751 4.31113 2.03224 0 0 0 0
391 2 0.02150342750381699 2.87409 4.06448 0 0 0 0
396 1 0.03242536610490195 4.31113 4.06448 2.03208 0 0 0
401 2 0.01715076973695928 2.87409 4.06448 4.06416 0 0 0
406 2 0.01608387077761603 4.31113 4.06448 6.09717 0 0 0
411 2 0.01597751710078778 2.87409 6.09672 6.09717 0 0 0
431 1 0.04308611753021342 2.87409 0 0 0 0 0
436 2 0.009930815251628755 4.31113 0 2.03208 0 0 0
441 2 0.01240304204850986 2.87409 2.03224 2.03208 0 0 0
446 2 0.00918522627887508 4.31113 2.03224 4.06416 0 0 0
451 1 0.03522565618084922 2.87409 2.03224 6.09717 0 0 0
491 1 0.03594095715472702 2.87409 0 4.06416 0 0 0
496 1 0.03060468966779664 4.31113 0 6.09717 0 0 0
601 2 0.0125621816560805 5.74797 6.09672 2.03208 0 0 0
641 2 0.01537134764979279 5.74797 4.06448 0 0 0 0
651 2 0.01622708258221987 5.74797 4.06448 4.06416 0 0 0
661 2 0.01525546560993802 5.74797 6.09672 6.09717 0 0 0
681 2 0.01841132301197003 5.74797 0 0 0 0 0
691 1 0.03269708025892201 5.74797 2.03224 2.03208 0 0 0
701 2 0.01331209631171891 5.74797 2.03224 6.09717 0 0 0
741 2 0.01556914400384429 5.74797 0 4.06416 0 0 0
596 1 0.04228534664843464 7.18501 6.09672 0 0 0 0
606 2 0.01727689449051274 7.18501 6.09672 4.06416 0 0 0
636 1 0.04083397193876236 7.18501 2.03224 0 0 0 0
646 2 0.009058836010476877 7.18501 4.06448 2.03208 0 0 0
656 2 0.01180021592940173 7.18501 4.06448 6.09717 0 0 0
686 2 0.01435774659538837 7.18501 0 2.03208 0 0 0
696 2 0.0162968421323423 7.18501 2.03224 4.06416 0 0 0
746 2 0.01580391129339535 7.18501 0 6.09717 0 0 0
851 2 0.01255313458845581 8.62206 6.09672 2.03208 0 0 0
891 2 0.01621036284667219 8.62206 4.06448 0 0 0 0
901 1 0.03507392454493838 8.62206 4.06448 4.06416 0 0 0
911 2 0.0140581791341324 8.62206 6.09672 6.09717 0 0 0
931 2 0.01766803611327604 8.62206 0 0 0 0 0
941 2 0.01292654836126041 8.62206 2.03224 2.03208 0 0 0
951 2 0.01265798660233628 8.62206 2.03224 6.09717 0 0 0
991 2 0.01645036755965314 8.62206 0 4.06416 0 0 0
846 1 0.03893541612541243 10.0591 6.09672 0 0 0 0
856 2 0.01377663472665885 10.0591 6.09672 4.06416 0 0 0
886 2 0.02286864254544112 10.0591 2.03224 0 0 0 0
896 2 0.01197747157010103 10.0591 4.06448 2.03208 0 0 0
906 1 0.03345735847996931 10.0591 4.06448 6.09717 0 0 0
936 2 0.01498207947519581 10.0591 0 2.03208 0 0 0
946 2 0.0136986504630218 10.0591 2.03224 4.06416 0 0 0
996 2 0.01387583518453402 10.0591 0 6.09717 0 0 0
1096 2 0.0179652432811411 12.9332 6.09672 0 0 0 0
1101 2 0.01448359516409619 11.4961 6.09672 2.03208 0 0 0
1106 2 0.01742064906656645 12.9332 6.09672 4.06416 0 0 0
1136 2 0.02341962153314966 12.9332 2.03224 0 0 0 0
1141 2 0.02167938722892714 11.4961 4.06448 0 0 0 0
1146 2 0.01133586836179669 12.9332 4.06448 2.03208 0 0 0
1151 1 0.03385370014754464 11.4961 4.06448 4.06416 0 0 0
1156 2 0.005680969013359218 12.9332 4.06448 6.09717 0 0 0
1161 2 0.01543110213188863 11.4961 6.09672 6.09717 0 0 0
1181 2 0.02010092724067874 11.4961 0 0 0 0 0
1186 2 0.01652766900069064 12.9332 0 2.03208 0 0 0
1191 2 0.01685738683514317 11.4961 2.03224 2.03208 0 0 0
1196 2 0.01381399293986015 12.9332 2.03224 4.06416 0 0 0
1201 2 0.01108428267713753 11.4961 2.03224 6.09717 0 0 0
1241 2 0.01753664326322507 11.4961 0 4.06416 0 0 0
1246 2 0.01637379970284866 12.9332 0 6.09717 0 0 0
1346 2 0.01733634566397933 15.8071 6.09672 0 0 0 0
1351 2 0.01218510461063292 14.3702 6.09672 2.03208 0 0 0
1356 2 0.01115806884383442 15.8071 6.09672 4.06416 0 0 0
1386 2 0.02161004115079969 15.8071 2.03224 0 0 0 0
1391 2 0.02222506152738436 14.3702 4.06448 0 0 0 0
1396 1 0.03273893314146549 15.8071 4.06448 2.03208 0 0 0
1401 1 0.03343830159224671 14.3702 4.06448 4.06416 0 0 0
1406 1 0.02854958356845008 15.8071 4.06448 6.09717 0 0 0
1411 2 0.01039684185521589 14.3702 6.09672 6.09717 0 0 0
1431 2 0.02161363671310605 14.3702 0 0 0 0 0
1436 1 0.03424675659910993 15.8071 0 2.03208 0 0 0
1441 2 0.01125970692992148 14.3702 2.03224 2.03208 0 0 0
1446 2 0.0101065329404081 15.8071 2.03224 4.06416 0 0 0
1451 1 0.0322409459567076 14.3702 2.03224 6.09717 0 0 0
1491 2 0.01538795679833825 14.3702 0 4.06416 0 0 0
1496 2 0.01088792061148223 15.8071 0 6.09717 0 0 0
1596 2 0.01888892604069387 18.6812 6.09672 0 0 0 0
1601 1 0.03418952982489137 17.2441 6.09672 2.03208 0 0 0
1606 2 0.009062570077515368 18.6812 6.09672 4.06416 0 0 0
1636 2 0.02376739498758844 18.6812 2.03224 0 0 0 0
1641 2 0.02012591137566126 17.2441 4.06448 0 0 0 0
1646 2 0.01163320784380407 18.6812 4.06448 2.03208 0 0 0
1651 2 0.01085557422758456 17.2441 4.06448 4.06416 0 0 0
1656 1 0.03067639275785347 18.6812 4.06448 6.09717 0 0 0
1661 1 0.03281406170069978 17.2441 6.09672 6.09717 0 0 0
1681 2 0.01606738653819408 17.2441 0 0 0 0 0
1686 1 0.03182124770994899 18.6812 0 2.03208 0 0 0
1691 2 0.009500112692049527 17.2441 2.03224 2.03208 0 0 0
1696 2 0.01624027564261894 18.6812 2.03224 4.06416 0 0 0
1701 2 0.01477247301438825 17.2441 2.03224 6.09717 0 0 0
1741 1 0.03298190100736232 17.2441 0 4.06416 0 0 0
1746 2 0.01469800933320835 18.6812 0 6.09717 0 0 0
51 2 0.0200743279072305 0 8.12896 0 0 0 0
56 2 0.01010879588098659 1.43704 8.12896 2.03208 0 0 0
111 2 0.01778310675454934 0 8.12896 4.06416 0 0 0
116 2 0.01093369080217878 1.43704 8.12896 6.09717 0 0 0
301 2 0.02425619213270314 2.87409 8.12896 0 0 0 0
306 2 0.009746567662107013 4.31113 8.12896 2.03208 0 0 0
361 1 0.03909715956471083 2.87409 8.12896 4.06416 0 0 0
366 2 0.01550974899562432 4.31113 8.12896 6.09717 0 0 0
551 2 0.01970837870719631 5.74797 8.12896 0 0 0 0
611 2 0.01464246098682546 5.74797 8.12896 4.06416 0 0 0
6 2 0.02132979187105315 1.43704 10.1612 0 0 0 0
11 2 0.01655164032815208 0 12.1934 0 0 0 0
16 1 0.03230760491860853 1.43704 12.1934 2.03208 0 0 0
61 2 0.01336313870105767 0 10.1612 2.03208 0 0 0
66 2 0.01340383911826116 1.43704 10.1612 4.06416 0 0 0
71 2 0.01520143891193509 0 12.1934 4.06416 0 0 0
76 2 0.01393977142973662 1.43704 12.1934 6.09717 0 0 0
121 2 0.01837081498025864 0 10.1612 6.09717 0 0 0
256 2 0.0209231039522122 4.31113 10.1612 0 0 0 0
261 2 0.02214123865263463 2.87409 12.1934 0 0 0 0
266 2 0.009191918138414759 4.31113 12.1934 2.03208 0 0 0
311 2 0.01187926719677302 2.87409 10.1612 2.03208 0 0 0
316 2 0.0123906155958893 4.31113 10.1612 4.06416 0 0 0
321 1 0.03378601648774836 2.87409 12.1934 4.06416 0 0 0
326 2 0.01261796068594338 4.31113 12.1934 6.09717 0 0 0
371 2 0.01414575823027047 2.87409 10.1612 6.09717 0 0 0
511 2 0.02202292150669891 5.74797 12.1934 0 0 0 0
561 1 0.03746534583169694 5.74797 10.1612 2.03208 0 0 0
571 2 0.01614739655792388 5.74797 12.1934 4.06416 0 0 0
621 2 0.01621226313953392 5.74797 10.1612 6.09717 0 0 0
556 2 0.01543736576069717 7.18501 8.12896 2.03208 0 0 0
616 1 0.03497526837494534 7.18501 8.12896 6.09717 0 0 0
801 2 0.01508707541906606 8.62206 8.12896 0 0 0 0
861 2 0.01533128011982859 8.62206 8.12896 4.06416 0 0 0
506 2 0.02071956797293015 7.18501 10.1612 0 0 0 0
516 2 0.01449673927377967 7.18501 12.1934 2.03208 0 0 0
566 2 0.01248353810048973 7.18501 10.1612 4.06416 0 0 0
576 2 0.01395209894571055 7.18501 12.1934 6.09717 0 0 0
761 2 0.01802687489240272 8.62206 12.1934 0 0 0 0
811 2 0.01016629675110808 8.62206 10.1612 2.03208 0 0 0
821 2 0.01325018900628926 8.62206 12.1934 4.06416 0 0 0
871 1 0.03266514724936982 8.62206 10.1612 6.09717 0 0 0
806 2 0.01272524881978276 10.0591 8.12896 2.03208 0 0 0
866 2 0.01185624782032023 10.0591 8.12896 6.09717 0 0 0
1051 1 0.03340973590385152 11.4961 8.12896 0 0 0 0
1056 2 0.01117886128736818 12.9332 8.12896 2.03208 0 0 0
1111 2 0.01486008486581974 11.4961 8.12896 4.06416 0 0 0
1116 2 0.01501459365457026 12.9332 8.12896 6.09717 0 0 0
756 1 0.03551320314081188 10.0591 10.1612 0 0 0 0
766 1 0.02846273976787288 10.0591 12.1934 2.03208 0 0 0
816 1 0.02889077098539451 10.0591 10.1612 4.06416 0 0 0
826 2 0.008806922057070926 10.0591 12.1934 6.09717 0 0 0
1006 1 0.02951550541165239 12.9332 10.1612 0 0 0 0
1011 1 0.03208971465815947 11.4961 12.1934 0 0 0 0
1016 1 0.0265887917226785 12.9332 12.1934 2.03208 0 0 0
1061 1 0.02164316374520074 11.4961 10.1612 2.03208 0 0 0
1066 1 0.02984537815196705 12.9332 10.1612 4.06416 0 0 0
1071 1 0.02581302291467065 11.4961 12.1934 4.06416 0 0 0
1076 2 0.01461370685123409 12.9332 12.1934 6.09717 0 0 0
1121 1 0.03221489849092417 11.4961 10.1612 6.09717 0 0 0
1301 1 0.04093800944748009 14.3702 8.12896 0 0 0 0
1306 2 0.01298611746006058 15.8071 8.12896 2.03208 0 0 0
1361 2 0.01695671186860476 14.3702 8.12896 4.06416 0 0 0
1366 2 0.01501443217035595 15.8071 8.12896 6.09717 0 0 0
1551 2 0.01897844364465929 17.2441 8.12896 0 0 0 0
1556 2 0.0114283980503332 18.6812 8.12896 2.03208 0 0 0
1611 2 0.01526762159931792 17.2441 8.12896 4.06416 0 0 0
1616 2 0.01506570186106283 18.6812 8.12896 6.09717 0 0 0
1256 2 0.01746336428486404 15.8071 10.1612 0 0 0 0
1261 1 0.0365786953681918 14.3702 12.1934 0 0 0 0
1266 2 0.01458225268770531 15.8071 12.1934 2.03208 0 0 0
1311 2 0.00682969821410552 14.3702 10.1612 2.03208 0 0 0
1316 1 0.03803678191207885 15.8071 10.1612 4.06416 0 0 0
1321 2 0.01002267536319221 14.3702 12.1934 4.06416 0 0 0
1326 2 0.01306030930265872 15.8071 12.1934 6.09717 0 0 0
1371 2 0.01357793128717261 14.3702 10.1612 6.09717 0 0 0
1506 1 0.04292029596773599 18.6812 10.1612 0 0 0 0
1511 2 0.0178964704855492 17.2441 12.1934 0 0 0 0
1516 2 0.01268174794858135 18.6812 12.1934 2.03208 0 0 0
1561 2 0.01313564989501056 17.2441 10.1612 2.03208 0 0 0
1566 2 0.01849798421191719 18.6812 10.1612 4.06416 0 0 0
1571 2 0.01738775347669513 17.2441 12.1934 4.06416 0 0 0
1576 2 0.01676997376019661 18.6812 12.1934 6.09717 0 0 0
1621 2 0.01304176234429259 17.2441 10.1612 6.09717 0 0 0
21 1 0.03348740061941088 0 14.2257 2.03208 0 0 0
26 2 0.005733975402426955 1.43704 14.2257 4.06416 0 0 0
31 1 0.03849983665211962 0 16.2579 4.06416 0 0 0
36 2 0.01291665285545524 1.43704 16.2579 6.09717 0 0 0
41 2 0.01552138872351091 0 18.2902 6.09717 0 0 0
81 2 0.01887526185416025 0 14.2257 6.09717 0 0 0
176 2 0.01935746525621629 1.43704 18.2902 0 0 0 0
216 2 0.01991459413332526 1.43704 14.2257 0 0 0 0
221 2 0.02008574187615931 0 16.2579 0 0 0 0
226 2 0.01315514875114165 1.43704 16.2579 2.03208 0 0 0
231 2 0.01258308382694121 0 18.2902 2.03208 0 0 0
236 2 0.01581775200247764 1.43704 18.2902 4.06416 0 0 0
271 2 0.01062416538854299 2.87409 14.2257 2.03208 0 0 0
276 1 0.0335494376768213 4.31113 14.2257 4.06416 0 0 0
281 2 0.01564312507773969 2.87409 16.2579 4.06416 0 0 0
286 2 0.01556982271526137 4.31113 16.2579 6.09717 0 0 0
291 2 0.01211723589330847 2.87409 18.2902 6.09717 0 0 0
331 1 0.03448799245713718 2.87409 14.2257 6.09717 0 0 0
426 2 0.01993552198000034 4.31113 18.2902 0 0 0 0
466 2 0.02353820817264464 4.31113 14.2257 0 0 0 0
471 2 0.02408760447171823 2.87409 16.2579 0 0 0 0
476 2 0.01534919665732193 4.31113 16.2579 2.03208 0 0 0
481 2 0.01519512410501075 2.87409 18.2902 2.03208 0 0 0
486 2 0.01571117238630694 4.31113 18.2902 4.06416 0 0 0
521 2 0.01447907488606476 5.74797 14.2257 2.03208 0 0 0
531 2 0.01703548411958194 5.74797 16.2579 4.06416 0 0 0
541 2 0.01573605851800228 5.74797 18.2902 6.09717 0 0 0
581 2 0.01193123823920145 5.74797 14.2257 6.09717 0 0 0
721 2 0.02212892968857176 5.74797 16.2579 0 0 0 0
731 2 0.01807269722883887 5.74797 18.2902 2.03208 0 0 0
526 2 0.01582281284208038 7.18501 14.2257 4.06416 0 0 0
536 2 0.01365131492404007 7.18501 16.2579 6.09717 0 0 0
676 2 0.02250981736202418 7.18501 18.2902 0 0 0 0
716 2 0.02334191035891697 7.18501 14.2257 0 0 0 0
726 2 0.0169276884621896 7.18501 16.2579 2.03208 0 0 0
736 2 0.01552339249542049 7.18501 18.2902 4.06416 0 0 0
771 2 0.01604775667926765 8.62206 14.2257 2.03208 0 0 0
781 2 0.01424031363366402 8.62206 16.2579 4.06416 0 0 0
791 1 0.03204361563671594 8.62206 18.2902 6.09717 0 0 0
831 1 0.03955409422626137 8.62206 14.2257 6.09717 0 0 0
971 2 0.0195419975136411 8.62206 16.2579 0 0 0 0
981 2 0.01130956396820215 8.62206 18.2902 2.03208 0 0 0
776 2 0.01344272558870682 10.0591 14.2257 4.06416 0 0 0
786 2 0.01165324748775584 10.0591 16.2579 6.09717 0 0 0
926 1 0.04187285830748321 10.0591 18.2902 0 0 0 0
966 2 0.02176356831055418 10.0591 14.2257 0 0 0 0
976 2 0.01592422497191186 10.0591 16.2579 2.03208 0 0 0
986 1 0.03557563285017304 10.0591 18.2902 4.06416 0 0 0
1021 2 0.01009681341778349 11.4961 14.2257 2.03208 0 0 0
1026 1 0.03721959377903791 12.9332 14.2257 4.06416 0 0 0
1031 2 0.01480406217748547 11.4961 16.2579 4.06416 0 0 0
1036 2 0.01857655403599336 12.9332 16.2579 6.09717 0 0 0
1041 2 0.01136413102551015 11.4961 18.2902 6.09717 0 0 0
1081 2 0.01490772090488693 11.4961 14.2257 6.09717 0 0 0
1176 2 0.02013602841014054 12.9332 18.2902 0 0 0 0
1216 2 0.01605166013777025 12.9332 14.2257 0 0 0 0
1221 2 0.02038732159250663 11.4961 16.2579 0 0 0 0
1226 2 0.01447962834650398 12.9332 16.2579 2.03208 0 0 0
1231 2 0.0113774075483531 11.4961 18.2902 2.03208 0 0 0
1236 2 0.01918315157373501 12.9332 18.2902 4.06416 0 0 0
1271 2 0.005678487948096472 14.3702 14.2257 2.03208 0 0 0
1276 2 0.01925974987412508 15.8071 14.2257 4.06416 0 0 0
1281 2 0.01411277603988104 14.3702 16.2579 4.06416 0 0 0
1286 2 0.01388040217412082 15.8071 16.2579 6.09717 0 0 0
1291 2 0.01742868663047966 14.3702 18.2902 6.09717 0 0 0
1331 2 0.01298875679816659 14.3702 14.2257 6.09717 0 0 0
1426 2 0.01836389983156656 15.8071 18.2902 0 0 0 0
1466 1 0.03688095528264661 15.8071 14.2257 0 0 0 0
1471 1 0.03776127438539907 14.3702 16.2579 0 0 0 0
1476 1 0.03503147992260478 15.8071 16.2579 2.03208 0 0 0
1481 2 0.01147606618361565 14.3702 18.2902 2.03208 0 0 0
1486 2 0.01267459720572681 15.8071 18.2902 4.06416 0 0 0
1521 2 0.01218752761660762 17.2441 14.2257 2.03208 0 0 0
1526 2 0.01462614469007001 18.6812 14.2257 4.06416 0 0 0
1531 2 0.01572881026967445 17.2441 16.2579 4.06416 0 0 0
1536 2 0.01378102617152402 18.6812 16.2579 6.09717 0 0 0
1541 1 0.03647552348974734 17.2441 18.2902 6.09717 0 0 0
1581 2 0.0147227117773484 17.2441 14.2257 6.09717 0 0 0
1676 1 0.04301879064586731 18.6812 18.2902 0 0 0 0
1716 2 0.02202368171733939 18.6812 14.2257 0 0 0 0
1721 2 0.01499438980384633 17.2441 16.2579 0 0 0 0
1726 2 0.01077888563317986 18.6812 16.2579 2.03208 0 0 0
1731 2 0.007406221380437991 17.2441 18.2902 2.03208 0 0 0
1736 2 0.01115707987073782 18.6812 18.2902 4.06416 0 0 0
17 2 0.01170151206031687 1.4824648792269919 1.9770060147204085 11.929557060785255 0 0 0
166 1 0.031588437904845 1.5005366726224472 6.116745520132671 8.132322307710384 0 0 0
206 2 0.01348400370967642 1.364717957660294 1.873244485133917 8.111395391036105 0 0 0
217 2 0.008350251405136726 1.39400864561898 4.179579984033881 9.956060080976169 0 0 0
227 1 0.03277655650523142 1.5664379519377964 6.1649412922549605 11.981569027643697 0 0 0
262 2 0.01642926740200384 2.862381608113733 1.8929598532968968 9.902759386517365 0 0 0
267 2 0.009794463080722321 4.25748767077976 2.028707458227301 11.920124343441831 0 0 0
272 1 0.03367064667759438 2.9656327150366324 3.954169032084011 11.84934444540059 0 0 0
416 2 0.01335225198918988 4.4311855902745085 6.233663206086617 8.025326393999082 0 0 0
456 2 0.007476434247428526 4.433528565334913 2.0186467342629384 8.08533479154809 0 0 0
461 2 0.01497296334810228 3.028123697402735 4.094899205699663 8.139626274162271 0 0 0
467 2 0.006061581753292432 4.390981160424205 4.041319491386648 10.005073927816415 0 0 0
472 1 0.03326548464098503 2.987659752310165 6.129357930422043 10.061679596540811 0 0 0
477 2 0.005034592212060977 4.180634871810121 5.998448870634954 12.131071911017198 0 0 0
512 1 0.03294922701703787 5.8466872532207175 2.0020372990440065 10.053554300228555 0 0 0
522 1 0.03796404172251485 5.7343601060151075 4.233294822886848 11.998835552335583 0 0 0
711 1 0.03471027930112536 5.822488355718737 4.173330088945245 8.079616979894956 0 0 0
722 2 0.0102083196413222 5.697165748825511 6.248672496059856 10.01758341330961 0 0 0
12 2 0.0196073076543073 0.06457673208844383 2.298545379641367 10.232482008506107 0 0 0
62 2 0.01168576753454555 19.947252920891998 20.133661306001624 12.054410617013854 -1 -1 0
22 2 0.0133602843098486 20.095352437809552 4.154646746948721 11.822194985269418 -1 0 0
211 1 0.03346541036122586 0.13037319357718857 4.070599519296731 7.926588093674817 0 0 0
1 2 0.01312852754216139 20.041544685700753 20.270579233508716 7.959785787839972 -1 -1 0
562 2 0.01339935271167882 5.946610531770366 0.0983925606899092 11.91637428807117 0 0 0
251 1 0.03270336882979912 2.829955295176551 20.246969571800204 8.098308250549763 0 -1 0
517 2 0.00546447128901182 7.229233918019192 2.2873454991523707 12.027694048013576 0 0 0
666 2 0.01283922073853777 7.103091477074145 6.143659627826014 8.099687601796761 0 0 0
706 1 0.03101435378339149 7.089968735080126 2.0675825533465946 8.002272957348637 0 0 0
717 1 0.02591090409536382 7.2265941973357055 4.195857760103179 10.076608821282598 0 0 0
727 2 0.009171406206364106 7.194139700821102 6.218453405355883 12.091326384898482 0 0 0
762 1 0.02809168617345367 8.63771062966074 2.043980227178459 10.076545736141101 0 0 0
772 2 0.01083015041684078 8.715519354047002 4.188599937503333 12.067841609783946 0 0 0
961 2 0.006290234159446587 8.688946708487938 4.318465942927478 7.947651997874279 0 0 0
972 1 0.03551453573870648 8.715375855125496 6.195445179868253 10.185717636734644 0 0 0
767 2 0.005308880231385461 10.104882859554682 2.1400769069838237 11.971189547775609 0 0 0
916 2 0.01542446905409751 10.111439364415238 6.125770234427715 8.093533916977833 0 0 0
956 1 0.03065167962048715 10.130416336933152 2.2195655197469404 8.060041591808847 0 0 0
967 1 0.0324226179648268 10.132665849270909 4.04157506590982 10.016030755160301 0 0 0
977 2 0.01553230312062789 10.245153891594212 6.263379110244217 12.256163338095071 0 0 0
1012 1 0.0300402162514469 11.494776376524413 1.8323832974601713 10.102655093839969 0 0 0
1017 1 0.03594273721232936 12.828575156020934 1.9160735927531112 12.135507959699863 0 0 0
1022 2 0.01364258255792557 11.366645607428367 3.9998037344995416 11.926619377079849 0 0 0
1166 1 0.03483477194914683 13.02814373436309 5.990580333230433 8.100754075407801 0 0 0
1206 1 0.03243397542738972 12.9276546134177 2.016122013937082 8.121184383758536 0 0 0
1211 2 0.006556011255010881 11.604503969024991 4.05054734424874 8.024066283350134 0 0 0
1217 2 0.008193394561058873 13.03922636206533 4.160315806150129 10.093622257617096 0 0 0
1222 2 0.01341921856646175 11.604496280283389 6.210478593949945 10.239644257912275 0 0 0
1227 2 0.01584829482013542 12.950226594168164 6.001024594691467 12.00220835896817 0 0 0
757 2 0.009964228095679005 9.965991752699566 20.303493089274795 9.925744052236741 0 -1 0
1001 2 0.01165296318009357 11.279525194257914 0.033575910344932076 7.957380479892577 0 0 0
222 2 0.01472883519843684 19.97146306949107 6.042191436681208 10.112543235398741 -1 0 0
1257 2 0.01382262208812848 15.784446275910717 20.14128094483056 9.871766877177928 0 -1 0
1262 2 0.01025931899535417 14.374501977890935 1.9746595459114336 10.113165287382957 0 0 0
1267 2 0.007467133050167732 15.422493106372169 2.1432476039940984 11.980689321096442 0 0 0
1272 2 0.01234867555478192 14.292417805097907 4.023072530480594 11.931883900730348 0 0 0
1416 1 0.02478940766753262 15.803088641750929 6.002651921242382 8.149872574961877 0 0 0
1456 2 0.01216518140126869 15.732376805935505 2.000466370221518 8.143438334379775 0 0 0
1461 1 0.02607184247625552 14.412412887748236 3.907341267223549 8.044659023359568 0 0 0
1467 1 0.02689836883737871 15.689529185527155 4.173342749313164 10.031369932488927 0 0 0
1472 1 0.02640237522389077 14.276230236031733 6.146233764729214 10.00897449840173 0 0 0
1477 1 0.02560381634754196 15.792049142456072 6.1381735054680195 11.804756720654932 0 0 0
1512 2 0.01531971262363051 16.93443832318936 1.8975869630153743 9.980466210454821 0 0 0
1517 2 0.006881879196220034 18.600802632793183 1.8931677215013003 11.70871959866483 0 0 0
1522 1 0.03384062369160311 17.197482061140075 4.049586202466446 11.96001285587188 0 0 0
1666 2 0.00543599276485536 18.694602055575213 5.963814145083751 8.053579782140053 0 0 0
1706 2 0.01549229774866343 18.730129290606424 1.8765853497936442 8.293542108032007 0 0 0
1711 2 0.008162799685712915 17.348939788816054 3.9134165973427666 8.062676093552373 0 0 0
1717 2 0.01361163648347686 18.52389505602263 3.9195395969130007 9.921738910411515 0 0 0
1722 1 0.03015482226787648 17.2221296737688 6.06689071559535 9.901636949898753 0 0 0
1727 2 0.01155372823594613 18.70335058443025 6.121300633944048 12.101272508689837 0 0 0
1507 1 0.03734334043542308 18.64989005470722 20.212620006077383 9.968608564712257 0 -1 0
1501 2 0.01460838147290072 17.27045776842848 20.245892217807192 7.812629066782354 0 -1 0
1312 1 0.03146422787696623 14.359187265723317 20.319954451319546 11.990547742185395 0 -1 0
177 2 0.01275732831418259 1.3706207200409706 8.12214104208765 10.104371921618526 0 0 0
421 2 0.01132379610026756 2.8609149486223524 8.038911861719024 8.107757423628994 0 0 0
427 2 0.01316314384717505 4.199560988543595 8.166747247805503 10.076881529969834 0 0 0
482 2 0.01276325721550532 2.954937280253813 7.900889949764715 12.080919230138234 0 0 0
671 2 0.01803399267014809 5.598876991682679 8.243643613144028 8.180968524267273 0 0 0
732 1 0.04013991079539515 5.7635246890611445 8.051826023672747 11.81908671390682 0 0 0
126 1 0.03861634679556892 1.6864414619276331 10.071318208888632 8.159472645422447 0 0 0
137 2 0.01431716367030109 1.548706354172646 12.081434569809035 9.965754266531183 0 0 0
187 2 0.01964296782841973 1.5816833689445498 10.041057781371688 12.164970888008575 0 0 0
376 2 0.01569629617842808 4.2147397649631895 10.40482837489945 8.168068057494494 0 0 0
381 2 0.01365785897652928 2.905884186923023 12.336531857190709 8.128323293013414 0 0 0
387 2 0.0152738220722682 4.182508668507426 12.366583953490363 10.097069132509137 0 0 0
432 2 0.01446456707839564 3.0538807153413248 10.349563863514293 10.137664429687343 0 0 0
437 2 0.0155585327909174 4.33813066701433 10.399438924100325 12.085585118995757 0 0 0
442 2 0.01580084520079446 3.0637311754522667 12.318465740571133 12.021618354092837 0 0 0
631 2 0.01856175384432935 5.725105331339995 12.355221252393225 7.955280074087665 0 0 0
682 2 0.0168074399912501 5.579753639093148 10.37906060525112 9.958422059542093 0 0 0
692 2 0.01699495034224941 5.617199168363101 12.29473668382274 11.893391656323459 0 0 0
182 2 0.01423531725011261 0.13018472616135537 10.072994881819083 10.062655017661088 0 0 0
131 2 0.01211994897101127 20.03540329249831 12.23888941835229 8.131084168895276 -1 0 0
677 2 0.01215385222764039 7.112950019662688 8.11694167488155 9.998448571652698 0 0 0
921 2 0.01418370114431897 8.664869848377473 8.069368954439325 8.06626660480182 0 0 0
982 2 0.01396748872205328 8.444137128833534 8.277904455396314 11.83184360771407 0 0 0
626 2 0.01393153466107241 7.097698859898911 10.151993218364016 8.039075019998277 0 0 0
637 2 0.01730553628255305 7.318069439342093 12.063018779271438 10.08172289689173 0 0 0
687 2 0.01253126319255789 7.107649234430524 10.222412709805317 11.911403617414944 0 0 0
881 2 0.01591289986299294 8.612539890102006 12.134789797101323 8.016577600500364 0 0 0
932 2 0.01924100349361487 8.63327049563384 10.355858194653788 9.976026486016139 0 0 0
942 2 0.0158585685375122 8.513439189659323 12.272508320019607 12.204727485680019 0 0 0
927 2 0.01640222693195393 9.859647853210918 8.23903790498022 10.013248881379456 0 0 0
1171 2 0.01601334049914899 11.57494675310164 8.125258846130627 8.029373878730498 0 0 0
1177 2 0.01450251907917722 13.141431944327957 8.298992948877485 9.895431295496147 0 0 0
1232 2 0.01660476012798343 11.436860336092646 8.181861299955024 11.876310922015124 0 0 0
876 2 0.01505217718563839 10.292794740117658 10.07287918306961 8.176016036539936 0 0 0
887 2 0.01574386112082223 10.066722528393598 12.248896450892957 10.016944962965987 0 0 0
937 2 0.01246416223962204 10.011645293559148 10.339432555652017 11.93997472004418 0 0 0
1126 2 0.01643298900687055 13.013704367824058 10.32989290606832 8.373904581642673 0 0 0
1131 2 0.01584154733097116 11.468122473484373 12.479314846101426 8.107121186897732 0 0 0
1137 1 0.03505757380354642 13.02014696074128 12.298835881115695 10.198290440553848 0 0 0
1182 2 0.01384831128899366 11.449921462548525 10.162045935578215 10.084012301233145 0 0 0
1187 1 0.03365681311636334 12.96362225032917 10.128888110870221 12.042083251793908 0 0 0
1192 2 0.01278045268497024 11.417710766779267 12.403981911985655 12.24099586237662 0 0 0
192 2 0.01536507140652769 0.14526650901241567 12.207917138933302 11.918783617708707 0 0 0
171 2 0.01511263823231587 20.08101609093762 8.107883780501306 8.172807331966451 -1 0 0
232 2 0.01522861953531428 20.00813977447589 8.174259002938149 12.169701572594358 -1 0 0
1421 2 0.01446675462004657 14.309880854851707 8.160478411250443 7.929869195942064 0 0 0
1427 2 0.01235663406903446 15.777728504082216 8.300812944565925 9.966320510910316 0 0 0
1482 2 0.01212722293366462 14.368256314846935 8.12261825457544 12.103978874543637 0 0 0
1671 2 0.01479567049309215 17.284193493142592 7.9330181387734875 7.879427988523067 0 0 0
1677 2 0.0166659135191063 18.5066454070814 8.31089503268799 9.974393209211843 0 0 0
1732 1 0.03606614638890664 17.341945234349176 8.178798478693217 12.189803127131642 0 0 0
1376 2 0.01782353954239442 15.921055307420925 10.080036183395025 8.005466244493068 0 0 0
1381 2 0.01361957817839169 14.39107957224636 12.382075378139993 7.976028816831347 0 0 0
1387 2 0.01191838421395587 15.540981977118657 12.309692981747858 9.97216295177407 0 0 0
1432 2 0.0141641785634774 14.398789015455748 10.112091097187474 10.10292395990289 0 0 0
1437 2 0.01640311014298391 15.568713756948528 10.23104046250074 12.219385282947187 0 0 0
1442 2 0.01012375349959499 14.508978294045379 12.257427689137245 12.103955248167207 0 0 0
1626 2 0.01399836575500833 18.704159347205554 10.03256888491476 8.052348422733871 0 0 0
1631 1 0.03186656991143071 17.16865899437348 12.141763259135768 7.9480418149622505 0 0 0
1637 1 0.03706175990520521 18.75785130098816 12.111720735261219 9.947924799384088 0 0 0
1682 2 0.01493457335238715 17.03272660123749 10.220656723537136 9.952148573904022 0 0 0
1687 2 0.01316888694580885 18.519389887276155 10.032748175467916 12.020597033123536 0 0 0
1692 2 0.01613425769758153 17.262937922607644 12.082559360156589 12.058798849679368 0 0 0
7 2 0.009694945981567685 1.080891376397698 20.27636573566145 9.958879904920154 0 -1 0
501 2 0.01309087757142053 5.591925110694278 20.215396809355536 8.210078780800034 0 -1 0
257 2 0.01051192762814759 4.324647204513964 0.007105511877729969 10.129277586126875 0 0 0
312 1 0.04076695415719888 2.9019994706508925 0.014068884069693826 11.783360981771416 0 0 0
46 1 0.03670225301513839 1.4467210444867948 18.296493585238718 8.18990536310939 0 0 0
57 2 0.01606629236666118 1.3868955092684017 18.340731678913517 11.794454736629142 0 0 0
86 2 0.01641317374003117 1.5158503298018235 14.383779140606332 8.122922679026106 0 0 0
97 2 0.01601332219861405 1.447823937516233 16.185602381494306 10.156222014395539 0 0 0
147 2 0.01573568911756018 1.5625541248847277 14.08874630875115 11.763365220493247 0 0 0
296 2 0.01396697405742345 4.479585647047172 18.228801044527764 8.001278319032197 0 0 0
302 2 0.01180403320884834 3.121644468617725 18.265766462994222 9.88514365126354 0 0 0
307 2 0.01583019483832376 4.434462334693833 18.266232172648138 12.112236797381344 0 0 0
336 2 0.01315833663112597 4.43177757625044 14.279823229083245 8.084193691170736 0 0 0
341 2 0.01383492191053124 3.0090321167109915 16.20189166998387 8.114346119177194 0 0 0
347 2 0.0175573862155288 4.136869524168423 16.331881672284112 9.943826912213906 0 0 0
352 2 0.01921850319196926 2.9063511691001906 16.206178024138666 12.121174883027255 0 0 0
392 2 0.01655225092947815 3.088303710655014 14.251084161896722 9.921727457569279 0 0 0
397 2 0.01549026512554999 4.382755772456817 14.241688937458298 12.148640694889238 0 0 0
552 2 0.02016250079460877 5.904770541543785 18.25774050641999 10.127004808220189 0 0 0
591 2 0.01752360460943386 5.777961752432933 16.06611974840858 7.99086207468235 0 0 0
602 2 0.0165317721648138 5.808703278055065 16.205869531169817 12.158493746407988 0 0 0
642 2 0.01652977926939236 5.775592469047836 14.321016810174356 10.037484145967227 0 0 0
102 2 0.0123957412960797 0.2834650534867726 16.31607465054179 12.156438432418998 0 0 0
142 2 0.01578029966686696 0.061730139327850174 14.155729706936754 9.970322119838986 0 0 0
507 2 0.01171261341676168 7.169047519767973 0.04358699347216799 9.727682535317673 0 0 0
812 1 0.0310042817594018 8.547008832423865 0.2440017347179655 11.98865479369928 0 0 0
1007 2 0.01209307853799137 12.971650443256825 0.009767470799644684 10.115399645091925 0 0 0
751 2 0.01086407664326685 8.647593550149857 0.07439461710084014 8.21529562996671 0 0 0
1062 2 0.008384694384132557 11.474951280915274 0.13159693291204988 12.074771285815476 0 0 0
546 2 0.01512532007678986 7.126061555093911 18.298073364359634 7.986993654709201 0 0 0
557 2 0.01414839961232865 7.206648075222882 18.368090348123015 12.148394150787702 0 0 0