# LAMMPS data file written by Ovito Basic 3.0.0-dev791
8 atoms
2 atom types
0.0 4.3795599937 xlo xhi
0.0 4.3795599937 ylo yhi
0.0 4.3795599937 zlo zhi

Atoms  # charge

1 1 0.0 1.094889998 1.094889998 3.284669876
2 1 0.0 1.094889998 3.284669876 1.094889998
3 1 0.0 3.284669876 1.094889998 1.094889998
4 1 0.0 3.284669876 3.284669876 3.284669876
5 2 0.0 0.0 0.0 0.0
6 2 0.0 0.0 2.189779997 2.189779997
7 2 0.0 2.189779997 0.0 2.189779997
8 2 0.0 2.189779997 2.189779997 0.0
