# LAMMPS data file written by Ovito Basic 3.0.0-dev791
216 atoms
2 atom types
0.0 13.6197004318 xlo xhi
0.0 23.5900115967 ylo yhi
0.0 15.054599762 zlo zhi

Atoms  # charge

1 1 0.0 12.064396858 2.678527594 1.52804172
2 1 0.0 5.254545689 14.473532677 1.52804172
3 1 0.0 8.365149498 9.116477966 13.526556969
4 1 0.0 1.555299163 20.911483765 13.526556969
5 1 0.0 5.26782608 9.108811378 1.52804172
6 1 0.0 12.077673912 20.903816223 1.52804172
7 1 0.0 1.542022109 2.68619442 13.526556969
8 1 0.0 8.351869583 14.481199265 13.526556969
9 1 0.0 3.097323656 0.007666755 1.52804172
10 1 0.0 9.907171249 11.802671432 1.52804172
11 1 0.0 3.712524414 11.787338257 13.526556969
12 1 0.0 10.522372246 23.582344055 13.526556969
13 1 0.0 9.907173157 11.787338257 13.526556969
14 1 0.0 3.097321033 23.582344055 13.526556969
15 1 0.0 10.52237606 0.007666755 1.52804172
16 1 0.0 3.712524176 11.802671432 1.52804172
17 1 0.0 5.254546642 9.116477966 13.526556969
18 1 0.0 12.064394951 20.911483765 13.526556969
19 1 0.0 1.555301309 2.678527594 1.52804172
20 1 0.0 8.365148544 14.473532677 1.52804172
21 1 0.0 12.077676773 2.68619442 13.526556969
22 1 0.0 5.26782608 14.481199265 13.526556969
23 1 0.0 8.351870537 9.108811378 1.52804172
24 1 0.0 1.542018771 20.903816223 1.52804172
25 1 0.0 5.254546165 6.610196114 6.54624176
26 1 0.0 12.064394951 18.405200958 6.54624176
27 1 0.0 8.365151405 1.253140807 3.490157843
28 1 0.0 1.555300117 13.048145294 3.490157843
29 1 0.0 5.267827511 1.2454741 6.54624176
30 1 0.0 12.077675819 13.040478706 6.54624176
31 1 0.0 8.351870537 6.617862701 3.490157843
32 1 0.0 1.542020798 18.412866592 3.490157843
33 1 0.0 9.90717411 3.939334869 6.54624176
34 1 0.0 3.097323418 15.734339714 6.54624176
35 1 0.0 3.712525368 3.924001694 3.490157843
36 1 0.0 10.522374153 15.719006538 3.490157843
37 1 0.0 9.907172203 3.924001694 3.490157843
38 1 0.0 3.097322226 15.719006538 3.490157843
39 1 0.0 3.712525368 3.939334869 6.54624176
40 1 0.0 10.522374153 15.734339714 6.54624176
41 1 0.0 5.25454855 1.253140807 3.490157843
42 1 0.0 12.064395905 13.048145294 3.490157843
43 1 0.0 8.365149498 6.610196114 6.54624176
44 1 0.0 1.55529964 18.405200958 6.54624176
45 1 0.0 5.267826557 6.617862701 3.490157843
46 1 0.0 12.077675819 18.412866592 3.490157843
47 1 0.0 8.351870537 1.2454741 6.54624176
48 1 0.0 1.542020202 13.040478706 6.54624176
49 1 0.0 12.064396858 10.541864395 11.564440727
50 1 0.0 5.254545689 22.336868286 11.564440727
51 1 0.0 1.555300355 5.184809208 8.508358002
52 1 0.0 8.365148544 16.979814529 8.508358002
53 1 0.0 12.077676773 5.17714262 11.564440727
54 1 0.0 5.267824173 16.972146988 11.564440727
55 1 0.0 1.542021632 10.549530983 8.508358002
56 1 0.0 8.351869583 22.344535828 8.508358002
57 1 0.0 3.097323418 7.871003151 11.564440727
58 1 0.0 9.907171249 19.666007996 11.564440727
59 1 0.0 10.522374153 7.855669975 8.508358002
60 1 0.0 3.712522745 19.65067482 8.508358002
61 1 0.0 3.097323656 7.855669975 8.508358002
62 1 0.0 9.907171249 19.65067482 8.508358002
63 1 0.0 10.522374153 7.871003151 11.564440727
64 1 0.0 3.712522745 19.666007996 11.564440727
65 1 0.0 12.064396858 5.184809208 8.508358002
66 1 0.0 5.254545689 16.979814529 8.508358002
67 1 0.0 1.555300593 10.541864395 11.564440727
68 1 0.0 8.365148544 22.336868286 11.564440727
69 1 0.0 12.077675819 10.549530983 8.508358002
70 1 0.0 5.267824173 22.344535828 8.508358002
71 1 0.0 1.542021871 5.17714262 11.564440727
72 1 0.0 8.351869583 16.972146988 11.564440727
73 2 0.0 11.718118668 1.097879052 1.720740557
74 2 0.0 4.908267021 12.892884254 1.720740557
75 2 0.0 8.711431503 10.697125435 13.333857536
76 2 0.0 1.901579976 22.49213028 13.333857536
77 2 0.0 6.809849262 9.599247932 1.720740557
78 2 0.0 0.0 21.394252777 1.720740557
79 2 0.0 0.0 2.195757627 13.333857536
80 2 0.0 6.809848309 13.990762711 13.333857536
81 2 0.0 1.901582003 1.097878814 1.720740557
82 2 0.0 8.711429596 12.892884254 1.720740557
83 2 0.0 4.908265114 10.697125435 13.333857536
84 2 0.0 11.718115807 22.49213028 13.333857536
85 2 0.0 4.908266544 5.029547691 6.738940239
86 2 0.0 11.718115807 16.824552536 6.738940239
87 2 0.0 8.711431503 2.833789349 3.297459126
88 2 0.0 1.901580572 14.628793716 3.297459126
89 2 0.0 6.809849262 1.735911012 6.738940239
90 2 0.0 0.0 13.53091526 6.738940239
91 2 0.0 6.809848785 6.127426147 3.297459126
92 2 0.0 0.0 17.922430038 3.297459126
93 2 0.0 8.711431503 5.029546738 6.738940239
94 2 0.0 1.901580572 16.824552536 6.738940239
95 2 0.0 4.908266544 2.833789349 3.297459126
96 2 0.0 11.718115807 14.628793716 3.297459126
97 2 0.0 11.718115807 8.961215019 11.75714016
98 2 0.0 4.908264637 20.756219864 11.75714016
99 2 0.0 1.901581287 6.76545763 8.315658569
100 2 0.0 8.711429596 18.560462952 8.315658569
101 2 0.0 0.0 5.667578697 11.75714016
102 2 0.0 6.809848309 17.462585449 11.75714016
103 2 0.0 0.0 10.059094429 8.315658569
104 2 0.0 6.809847355 21.854101181 8.315658569
105 2 0.0 1.901581049 8.961215019 11.75714016
106 2 0.0 8.711429596 20.756219864 11.75714016
107 2 0.0 11.71811676 6.76545763 8.315658569
108 2 0.0 4.908266544 18.560462952 8.315658569
109 2 0.0 11.132061958 3.556193829 2.509099722
110 2 0.0 4.322210789 15.351198196 2.509099722
111 2 0.0 9.297486305 8.238812447 12.545498848
112 2 0.0 2.487635136 20.033817291 12.545498848
113 2 0.0 4.97391367 7.862550259 2.509099722
114 2 0.0 11.783761978 19.657554626 2.509099722
115 2 0.0 1.835934639 3.932454824 12.545498848
116 2 0.0 8.645782471 15.727459908 12.545498848
117 2 0.0 4.323573589 0.376260519 2.509099722
118 2 0.0 11.133421898 12.171264648 2.509099722
119 2 0.0 2.486274004 11.418744087 12.545498848
120 2 0.0 9.296121597 23.213748932 12.545498848
121 2 0.0 11.133420944 11.418744087 12.545498848
122 2 0.0 4.323569775 23.213748932 12.545498848
123 2 0.0 9.296124458 0.376260519 2.509099722
124 2 0.0 2.486274481 12.171264648 2.509099722
125 2 0.0 4.322209835 8.238812447 12.545498848
126 2 0.0 11.132058144 20.033817291 12.545498848
127 2 0.0 2.487637758 3.556193829 2.509099722
128 2 0.0 9.297485352 15.351198196 2.509099722
129 2 0.0 11.783762932 3.932454824 12.545498848
130 2 0.0 4.973911762 15.727459908 12.545498848
131 2 0.0 8.645784378 7.862550259 2.509099722
132 2 0.0 1.835933447 19.657554626 2.509099722
133 2 0.0 4.322210789 7.48786211 7.527299404
134 2 0.0 11.132059097 19.282867432 7.527299404
135 2 0.0 11.783762932 11.794220924 7.527299404
136 2 0.0 4.973910809 23.589225769 7.527299404
137 2 0.0 11.133423805 4.307928562 7.527299404
138 2 0.0 4.323571682 16.102931976 7.527299404
139 2 0.0 2.486276388 4.307928562 7.527299404
140 2 0.0 9.296126366 16.102931976 7.527299404
141 2 0.0 9.297487259 7.48786211 7.527299404
142 2 0.0 2.487635136 19.282867432 7.527299404
143 2 0.0 1.835934877 11.794220924 7.527299404
144 2 0.0 8.645782471 23.589225769 7.527299404
145 2 0.0 0.0 2.873263121 1.920966744
146 2 0.0 6.809847355 14.668268204 1.920966744
147 2 0.0 6.809849739 8.921743393 13.133631706
148 2 0.0 0.0 20.716747284 13.133631706
149 2 0.0 4.321528912 10.358372688 1.920966744
150 2 0.0 11.131376266 22.153381348 1.920966744
151 2 0.0 2.488319159 1.43663156 13.133631706
152 2 0.0 9.298167229 13.231635094 13.133631706
153 2 0.0 9.298167229 10.358372688 1.920966744
154 2 0.0 2.488315582 22.153381348 1.920966744
155 2 0.0 11.131380081 1.43663156 13.133631706
156 2 0.0 4.321529388 13.231635094 13.133631706
157 2 0.0 6.809849262 6.804931164 6.939166546
158 2 0.0 0.0 18.599939346 6.939166546
159 2 0.0 6.809849739 1.058405399 3.097232819
160 2 0.0 0.0 12.853409767 3.097232819
161 2 0.0 4.321530342 2.495036602 6.939166546
162 2 0.0 11.131379128 14.29004097 6.939166546
163 2 0.0 9.298169136 5.368299961 3.097232819
164 2 0.0 2.488318205 17.163305283 3.097232819
165 2 0.0 9.298167229 2.495036602 6.939166546
166 2 0.0 2.488316298 14.29004097 6.939166546
167 2 0.0 4.321529865 5.368299961 3.097232819
168 2 0.0 11.131379128 17.163305283 3.097232819
169 2 0.0 0.0 10.736599922 11.95736599
170 2 0.0 6.809847355 22.531604767 11.95736599
171 2 0.0 0.0 4.990073204 8.115431786
172 2 0.0 6.809848309 16.785076141 8.115431786
173 2 0.0 11.131380081 6.426704884 11.95736599
174 2 0.0 4.321528435 18.221710205 11.95736599
175 2 0.0 2.488317251 9.299969673 8.115431786
176 2 0.0 9.298167229 21.094974518 8.115431786
177 2 0.0 2.488318682 6.426704884 11.95736599
178 2 0.0 9.298167229 18.221710205 11.95736599
179 2 0.0 11.131379128 9.299969673 8.115431786
180 2 0.0 4.321528435 21.094974518 8.115431786
181 2 0.0 11.815088272 3.125675917 0.0
182 2 0.0 5.005238056 14.920681 0.0
183 2 0.0 8.614459038 8.669330597 0.0
184 2 0.0 1.80460763 20.464334488 0.0
185 2 0.0 5.005238056 8.669330597 0.0
186 2 0.0 11.815086365 20.464334488 0.0
187 2 0.0 1.804609656 3.125675917 0.0
188 2 0.0 8.614459038 14.920681 0.0
189 2 0.0 3.609220028 0.0 0.0
190 2 0.0 10.419068336 11.795004845 0.0
191 2 0.0 10.010478973 0.0 0.0
192 2 0.0 3.200628281 11.795004845 0.0
193 2 0.0 5.00523901 7.057344913 5.018199444
194 2 0.0 11.815086365 18.852352142 5.018199444
195 2 0.0 8.614459991 0.805992246 5.018199444
196 2 0.0 1.804608583 12.600996971 5.018199444
197 2 0.0 5.00523901 0.805992246 5.018199444
198 2 0.0 11.815086365 12.600996971 5.018199444
199 2 0.0 8.61445713 7.057344913 5.018199444
200 2 0.0 1.804607153 18.852352142 5.018199444
201 2 0.0 10.419070244 3.931668282 5.018199444
202 2 0.0 3.609218359 15.726673126 5.018199444
203 2 0.0 3.200629234 3.931668282 5.018199444
204 2 0.0 10.01047802 15.726673126 5.018199444
205 2 0.0 11.815087318 10.989012718 10.036398888
206 2 0.0 5.005238056 22.784017563 10.036398888
207 2 0.0 1.804609656 4.737660408 10.036398888
208 2 0.0 8.61445713 16.532663345 10.036398888
209 2 0.0 11.815088272 4.737660408 10.036398888
210 2 0.0 5.005238056 16.532663345 10.036398888
211 2 0.0 1.804609179 10.989012718 10.036398888
212 2 0.0 8.614459038 22.784017563 10.036398888
213 2 0.0 3.609219551 7.863336563 10.036398888
214 2 0.0 10.419067383 19.658342361 10.036398888
215 2 0.0 10.01047802 7.863336563 10.036398888
216 2 0.0 3.200626373 19.658342361 10.036398888
