# LAMMPS data file written by Ovito Basic 3.0.0-dev791
160 atoms
5 atom types
0.0 21.1343803406 xlo xhi
0.0 26.6469993591 ylo yhi
0.0 19.1564006805 zlo zhi

Atoms  # charge

1 1 0.0 4.7009813821 20.3795906819 8.5565800095
2 1 0.0 7.1616091621 26.5478594911 8.6098200722
3 1 0.0 8.43302212 6.3677595181 8.576020174
4 1 0.0 9.2056336699 2.8562229522 9.6896231425
5 1 0.0 10.6806566005 25.9977915056 9.6465274668
6 1 0.0 12.8190443201 23.1500492807 8.5868076413
7 1 0.0 14.3555993862 26.4282488653 9.6787104882
8 1 0.0 4.710391951 23.9391631807 9.6378970677
9 1 0.0 11.9676511339 5.5057894176 9.5077079082
10 1 0.0 15.2669744588 7.0559083105 8.5563386006
11 1 0.0 2.2400601511 14.2097981707 8.6109159332
12 1 0.0 12.7956992202 13.2103158037 8.6119524286
13 1 0.0 17.739997722 0.901386635 8.6137907726
14 1 0.0 0.9664263292 7.7437426151 8.5776734288
15 1 0.0 11.5369016064 19.7032035818 8.5835359579
16 1 0.0 18.9989553019 21.0562258123 8.583925714
17 1 0.0 0.1941921125 11.2555808517 9.6901065351
18 1 0.0 10.7629448743 16.1747159004 9.6869975854
19 1 0.0 19.7729227702 24.5843641516 9.6892821011
20 1 0.0 19.8551517832 14.7617179361 9.6460162783
21 1 0.0 9.284688468 12.6830917044 9.6503306637
22 1 0.0 0.1164665823 1.4295350654 9.6517897492
23 1 0.0 17.7166062321 17.6095763686 8.5865858485
24 1 0.0 7.178074197 9.8283840339 8.5712085459
25 1 0.0 2.2228122142 4.2840760056 8.5718199033
26 1 0.0 16.1795630252 14.3314095065 9.6774021251
27 1 0.0 5.6204402494 13.116434268 9.6901234886
28 1 0.0 3.781793859 0.9958436926 9.6901898846
29 1 0.0 4.6902035878 16.8199057861 9.6376709647
30 1 0.0 15.2664424853 10.618503032 9.6358105526
31 1 0.0 15.269465695 3.4936784664 9.6367214586
32 1 0.0 18.5661518085 8.6070748036 9.5069860567
33 1 0.0 7.9967476005 18.8241658118 9.5128646964
34 1 0.0 1.404861036 21.9356821 9.5125261261
35 1 0.0 4.7005544253 7.0559899569 9.6223766285
36 2 0.0 15.2677835885 20.3797281271 9.5768549862
37 2 0.0 12.29930878 2.2201406111 8.6551486562
38 2 0.0 18.236174874 11.893253086 8.6533348708
39 2 0.0 7.6630899235 15.54080497 8.6509678676
40 2 0.0 1.7376176698 25.2195468367 8.6511579182
41 3 0.0 16.3153422888 23.3116695939 9.1687412984
42 3 0.0 14.2205077719 17.4475252001 9.1677609887
43 3 0.0 3.7081401631 10.1158341427 9.1557064405
44 3 0.0 5.6924252381 3.9954836465 9.1555494729
45 4 0.0 4.7009266651 20.3794376482 6.8854963187
46 4 0.0 4.7008641708 7.0560596921 11.291357119
47 4 0.0 7.1487301666 26.5260533455 6.9363751442
48 4 0.0 8.4447248816 6.3081514862 6.9055363849
49 4 0.0 9.2070576622 2.8434449166 11.3686831564
50 4 0.0 10.7029444742 26.0194883451 11.3239027519
51 4 0.0 12.7758031243 23.2392627417 6.9166076735
52 4 0.0 14.3151673934 26.429719753 11.357128686
53 4 0.0 12.303939048 2.2256277612 6.9442959136
54 4 0.0 4.7195943252 23.9166437482 11.3163587889
55 4 0.0 11.9831571329 5.5841414018 11.1832022838
56 4 0.0 16.4242729006 23.6395266529 10.9726295913
57 4 0.0 15.6767203221 5.2367986179 9.1198592977
58 4 0.0 16.7984854246 2.5526690757 9.1248913969
59 4 0.0 5.5332288908 0.8089135265 9.1555532467
60 4 0.0 16.9835559386 21.3069311479 9.0293872954
61 4 0.0 19.4731707682 1.6260151696 9.1437605282
62 4 0.0 21.0723374928 26.0668508817 9.2314948893
63 4 0.0 18.9468257043 22.977191315 9.1325968675
64 4 0.0 3.9614529783 5.3058055261 9.0059569676
65 4 0.0 0.8298939207 3.1077171189 9.17799679
66 4 0.0 0.3834245777 23.7017265318 9.139543553
67 4 0.0 20.9279772692 21.0782337289 9.044997808
68 4 0.0 1.9270601262 0.676137844 9.0583470416
69 4 0.0 2.7620111449 23.4589987216 9.1384870967
70 4 0.0 2.7826035552 20.8198809443 8.9639250851
71 4 0.0 1.3149922192 5.9096827834 8.9790860928
72 4 0.0 3.5923854924 2.8374009241 9.0743007411
73 4 0.0 3.6553368437 25.6584474314 9.2483828848
74 4 0.0 7.9220200878 1.6737009076 9.1096352777
75 4 0.0 15.2669613977 7.0555652571 6.8852579556
76 4 0.0 15.2681870861 20.3793177101 11.1560050797
77 4 0.0 2.2533108792 14.2299024257 6.9374060267
78 4 0.0 12.792631269 13.2042495876 6.9386851954
79 4 0.0 17.7436342937 0.905772438 6.9406089769
80 4 0.0 0.9541738412 7.8031682483 6.907187341
81 4 0.0 11.5113802359 19.6478663179 6.9125771668
82 4 0.0 19.0249183175 21.1117870976 6.9130676089
83 4 0.0 0.1909904441 11.2684738691 11.3692488066
84 4 0.0 10.7520955613 16.1722273637 11.3657634336
85 4 0.0 19.7849377288 24.5857287711 11.3679482211
86 4 0.0 19.8325427092 14.7394539152 11.3234531703
87 4 0.0 9.2613815579 12.7023703288 11.3272313106
88 4 0.0 0.1398506541 1.4102163373 11.3285888864
89 4 0.0 17.7598635112 17.5204643793 6.9163792142
90 4 0.0 7.2228319114 9.9114624497 6.9006919036
91 4 0.0 2.1774859005 4.2011209921 6.9013545618
92 4 0.0 16.2192078046 14.3299202324 11.3558998412
93 4 0.0 5.6660076853 13.0929553037 11.3666711404
94 4 0.0 3.7384947761 1.0192995006 11.3666513327
95 4 0.0 18.2324021335 11.8894473616 6.9424805573
96 4 0.0 7.6546884578 15.5425294305 6.9398881216
97 4 0.0 1.7446756018 25.2193251603 6.9401210059
98 4 0.0 4.6794013833 16.8424574081 11.3161839292
99 4 0.0 15.2507721242 10.6009022626 11.3136710501
100 4 0.0 15.2872025546 3.5118085518 11.3144763851
101 4 0.0 18.5495968468 8.5306855574 11.182599815
102 4 0.0 7.972937671 18.8921467572 11.1891836591
103 4 0.0 1.429232675 21.8685723783 11.1887917767
104 4 0.0 14.1113966514 17.118588218 10.971477851
105 4 0.0 3.58171337 10.3175653313 10.9760625524
106 4 0.0 5.8196126364 3.7933532593 10.9758312771
107 4 0.0 14.8580522868 8.8752949721 9.1198350074
108 4 0.0 4.2854344906 18.5612643844 9.1213600868
109 4 0.0 5.1158721989 22.1978477239 9.121843556
110 4 0.0 13.7370067254 11.5595713659 9.1252061174
111 4 0.0 3.1640134769 15.8788670037 9.1319202059
112 4 0.0 6.2371959522 24.8798365794 9.1330351659
113 4 0.0 3.8681044281 13.3025087723 9.1580163001
114 4 0.0 14.4355927411 14.1420567818 9.1495832502
115 4 0.0 16.0998857139 26.6173668299 9.1519275722
116 4 0.0 13.5520923522 19.4523739646 9.0295697792
117 4 0.0 3.0223363897 8.0072968408 9.0246941304
118 4 0.0 6.378098718 6.1042825687 9.0241646475
119 4 0.0 11.0622762599 12.4863182967 9.14216003
120 4 0.0 0.5001666467 14.941811255 9.1424479891
121 4 0.0 8.9014477806 25.8169507118 9.1423786046
122 4 0.0 9.4629462933 14.6928343769 9.2298911538
123 4 0.0 20.0410796344 12.7366648305 9.2295585603
124 4 0.0 10.4943189537 1.3759125358 9.2303698914
125 4 0.0 11.588844989 17.7821307716 9.1310460419
126 4 0.0 1.0170269177 9.6371995944 9.1527844572
127 4 0.0 8.3828582945 4.4743107994 9.1512032304
128 4 0.0 5.4392764468 8.8062091089 9.0054676365
129 4 0.0 15.994146161 18.6218621657 9.006460302
130 4 0.0 14.5415398547 22.1376440517 9.0065404141
131 4 0.0 8.5711553098 11.0047441463 9.1769098175
132 4 0.0 19.148842018 16.4289341899 9.1777520478
133 4 0.0 11.3868715146 24.3305567588 9.1779526536
134 4 0.0 9.0177649217 17.0581712099 9.1392560346
135 4 0.0 19.5883174662 10.3711528734 9.1408496173
136 4 0.0 10.9463416933 3.7413971264 9.142495382
137 4 0.0 9.6078381734 19.6812821347 9.0443673708
138 4 0.0 20.1758821938 7.7484644634 9.0242686093
139 4 0.0 10.3581114652 6.3633877314 9.0228304617
140 4 0.0 7.4742655843 13.4364670752 9.0562319834
141 4 0.0 18.0500984481 13.9769620996 9.0731078337
142 4 0.0 12.4854079043 0.1359659945 9.0734401015
143 4 0.0 6.6391283928 17.3005919935 9.1406705433
144 4 0.0 17.2134249351 10.1317479706 9.1478358034
145 4 0.0 13.3213996432 3.9808445579 9.151687964
146 4 0.0 6.6189887867 19.9395941228 8.9637497466
147 4 0.0 17.1867746506 7.4922484483 8.9634137433
148 4 0.0 13.3473901758 6.6199538614 8.9635506158
149 4 0.0 8.0851002579 8.2020606118 8.9778118473
150 4 0.0 18.6458547981 19.2300432598 8.9750308935
151 4 0.0 11.8900222302 21.5293819507 8.9752570156
152 4 0.0 5.8087966312 11.2747194195 9.0741542329
153 4 0.0 16.4514263314 16.1161249578 9.1012145262
154 4 0.0 14.0839049649 24.6434155809 9.1023857294
155 4 0.0 5.7457751136 15.1008990373 9.2484643953
156 4 0.0 16.3094708198 12.3358006157 9.2306297671
157 4 0.0 14.2260059444 1.7768897605 9.2322238287
158 4 0.0 1.4790028092 12.4374839664 9.1115817979
159 4 0.0 12.0368186983 14.9759680183 9.128359395
160 4 0.0 18.4985216857 25.7832383671 9.1322892923
