# LAMMPS data file written by Ovito Basic 3.0.0-dev791
292 atoms
4 atom types
0.0 20.077999115 xlo xhi
0.0 19.8939990997 ylo yhi
0.0 13.3719997406 zlo zhi

Atoms  # charge

1 1 0.0 8.491387367 1.129581213 8.891309738
2 1 0.0 11.586611748 18.764417648 4.480690002
3 1 0.0 1.547612429 18.764417648 2.205309868
4 1 0.0 18.530385971 1.129581213 11.166689873
5 1 0.0 11.586611748 11.076580048 4.480690002
6 1 0.0 8.491387367 8.817418098 8.891309738
7 1 0.0 18.530385971 8.817418098 11.166689873
8 1 0.0 1.547612429 11.076580048 2.205309868
9 1 0.0 6.192055225 0.576329172 10.870499611
10 1 0.0 13.885943413 19.317670822 2.50150013
11 1 0.0 3.846944571 19.317670822 4.184499741
12 1 0.0 16.231054306 0.576329172 9.1875
13 1 0.0 13.885943413 10.523328781 2.50150013
14 1 0.0 6.192055225 9.370670319 10.870499611
15 1 0.0 16.231054306 9.370670319 9.1875
16 1 0.0 3.846944571 10.523328781 4.184499741
17 1 0.0 5.605576515 1.231637478 0.435526043
18 1 0.0 14.4724226 18.662363052 12.936473846
19 1 0.0 4.433423042 18.662363052 7.121525764
20 1 0.0 15.644576073 1.231637478 6.250473976
21 1 0.0 14.4724226 11.178636551 12.936473846
22 1 0.0 5.605576515 8.715361595 0.435526043
23 1 0.0 15.644576073 8.715361595 6.250473976
24 1 0.0 4.433423042 11.178636551 7.121525764
25 1 0.0 2.45513773 1.272619128 0.378962487
26 1 0.0 17.622861862 18.621379852 12.993037224
27 1 0.0 7.583861828 18.621379852 7.06496191
28 1 0.0 12.494137764 1.272619128 6.307037354
29 1 0.0 17.622861862 11.219617844 12.993037224
30 1 0.0 2.45513773 8.674380302 0.378962487
31 1 0.0 12.494137764 8.674380302 6.307037354
32 1 0.0 7.583861828 11.219617844 7.06496191
33 1 0.0 1.439190984 0.56200546 10.909412384
34 1 0.0 18.638807297 19.331993103 2.462587357
35 1 0.0 8.599808693 19.331993103 4.223412514
36 1 0.0 11.478190422 0.56200546 9.148587227
37 1 0.0 18.638807297 10.509004593 2.462587357
38 1 0.0 1.439190984 9.384993553 10.909412384
39 1 0.0 11.478190422 9.384993553 9.148587227
40 1 0.0 8.599808693 10.509004593 4.223412514
41 1 0.0 3.755188227 1.174939632 9.012460709
42 1 0.0 16.322811127 18.719060898 4.359539509
43 1 0.0 6.283811092 18.719060898 2.3264606
44 1 0.0 13.794188499 1.174939632 11.045538902
45 1 0.0 16.322811127 11.121938705 4.359539509
46 1 0.0 3.755188227 8.772059441 9.012460709
47 1 0.0 13.794188499 8.772059441 11.045538902
48 1 0.0 6.283811092 11.121938705 2.3264606
49 1 0.0 8.502229691 16.469644547 9.0480299
50 1 0.0 11.575769424 3.424353838 4.323970318
51 1 0.0 1.536769867 3.424353838 2.362029791
52 1 0.0 18.541229248 16.469644547 11.009969711
53 1 0.0 11.575769424 6.522645473 4.323970318
54 1 0.0 8.502229691 13.371353149 9.0480299
55 1 0.0 18.541229248 13.371353149 11.009969711
56 1 0.0 1.536769867 6.522645473 2.362029791
57 1 0.0 6.196270943 17.323694229 10.937493324
58 1 0.0 13.881728172 2.570304394 2.434506416
59 1 0.0 3.842728376 2.570304394 4.251493454
60 1 0.0 16.235269547 17.323694229 9.120506287
61 1 0.0 13.881728172 7.376695156 2.434506416
62 1 0.0 6.196270943 12.517303467 10.937493324
63 1 0.0 16.235269547 12.517303467 9.120506287
64 1 0.0 3.842728376 7.376695156 4.251493454
65 1 0.0 5.504785061 16.45850563 0.446758538
66 1 0.0 14.573213577 3.435494184 12.92524147
67 1 0.0 4.534214497 3.435494184 7.132758617
68 1 0.0 15.543785095 16.45850563 6.239241123
69 1 0.0 14.573213577 6.511505127 12.92524147
70 1 0.0 5.504785061 13.382493973 0.446758538
71 1 0.0 15.543785095 13.382493973 6.239241123
72 1 0.0 4.534214497 6.511505127 7.132758617
73 1 0.0 2.401931047 16.4473629 0.400090247
74 1 0.0 17.67606926 3.446635723 12.971909523
75 1 0.0 7.637068272 3.446635723 7.086090088
76 1 0.0 12.440930367 16.4473629 6.285909653
77 1 0.0 17.67606926 6.500363827 12.971909523
78 1 0.0 2.401931047 13.39363575 0.400090247
79 1 0.0 12.440930367 13.39363575 6.285909653
80 1 0.0 7.637068272 6.500363827 7.086090088
81 1 0.0 1.414494991 17.311559677 10.937627792
82 1 0.0 18.663503647 2.582439423 2.434372425
83 1 0.0 8.624504089 2.582439423 4.251627445
84 1 0.0 11.453495026 17.311559677 9.120371819
85 1 0.0 18.663503647 7.364560127 2.434372425
86 1 0.0 1.414494991 12.529438972 10.937627792
87 1 0.0 8.624504089 7.364560127 4.251627445
88 1 0.0 3.775266171 16.455320358 9.136552811
89 1 0.0 16.302732468 3.438678026 4.23544693
90 1 0.0 6.263733387 3.438678026 2.45055294
91 1 0.0 13.814266205 16.455320358 10.9214468
92 1 0.0 16.302732468 6.508321762 4.23544693
93 1 0.0 3.775266171 13.385677338 9.136552811
94 1 0.0 13.814266205 13.385677338 10.9214468
95 1 0.0 6.263733387 6.508321762 2.45055294
96 2 0.0 7.479054928 1.104116917 10.113243103
97 2 0.0 12.598944664 18.789880753 3.258756399
98 2 0.0 2.559944868 18.789880753 3.427243471
99 2 0.0 17.518054962 1.104116917 9.944756508
100 2 0.0 12.598944664 11.051116943 3.258756399
101 2 0.0 7.479054928 8.842882156 10.113243103
102 2 0.0 17.518054962 8.842882156 9.944756508
103 2 0.0 2.559944868 11.051116943 3.427243471
104 2 0.0 6.210125446 1.181703568 12.334332466
105 2 0.0 13.867874146 18.712295532 1.037667155
106 2 0.0 3.82887435 18.712295532 5.648332596
107 2 0.0 16.249124527 1.181703568 7.723667145
108 2 0.0 13.867874146 11.128703117 1.037667155
109 2 0.0 6.210125446 8.765295982 12.334332466
110 2 0.0 16.249124527 8.765295982 7.723667145
111 2 0.0 3.82887435 11.128703117 5.648332596
112 2 0.0 4.029654503 1.183692932 0.379764795
113 2 0.0 16.048345566 18.710306168 12.992235184
114 2 0.0 6.009345531 18.710306168 7.065764904
115 2 0.0 14.06865406 1.183692932 6.306234837
116 2 0.0 16.048345566 11.130692482 12.992235184
117 2 0.0 4.029654503 8.763306618 0.379764795
118 2 0.0 14.06865406 8.763306618 6.306234837
119 2 0.0 6.009345531 11.130692482 7.065764904
120 2 0.0 1.913433194 1.259290099 12.260786057
121 2 0.0 18.16456604 18.634708405 1.111213207
122 2 0.0 8.125566483 18.634708405 5.574786663
123 2 0.0 11.952433586 1.259290099 7.797213554
124 2 0.0 18.16456604 11.206290245 1.111213207
125 2 0.0 1.913433194 8.687708855 12.260786057
126 2 0.0 11.952433586 8.687708855 7.797213554
127 2 0.0 8.125566483 11.206290245 5.574786663
128 2 0.0 2.329047918 1.076265335 9.698711395
129 2 0.0 17.748950958 18.817733765 3.673288107
130 2 0.0 7.709951878 18.817733765 3.012711763
131 2 0.0 12.368047714 1.076265335 10.359288216
132 2 0.0 17.748950958 11.023264885 3.673288107
133 2 0.0 2.329047918 8.870734215 9.698711395
134 2 0.0 12.368047714 8.870734215 10.359288216
135 2 0.0 7.709951878 11.023264885 3.012711763
136 2 0.0 4.884977341 1.06035018 10.115918159
137 2 0.0 15.193021774 18.833648682 3.25608182
138 2 0.0 5.15402174 18.833648682 3.429918051
139 2 0.0 14.923976898 1.06035018 9.942081451
140 2 0.0 15.193021774 11.007349968 3.25608182
141 2 0.0 4.884977341 8.886649132 10.115918159
142 2 0.0 14.923976898 8.886649132 9.942081451
143 2 0.0 5.15402174 11.007349968 3.429918051
144 2 0.0 7.511179447 16.778598785 10.249637604
145 2 0.0 12.566820145 3.115400314 3.122361898
146 2 0.0 2.52782011 3.115400314 3.563637972
147 2 0.0 17.550178528 16.778598785 9.808362007
148 2 0.0 12.566820145 6.831599236 3.122361898
149 2 0.0 7.511179447 13.062399864 10.249637604
150 2 0.0 17.550178528 13.062399864 9.808362007
151 2 0.0 2.52782011 6.831599236 3.563637972
152 2 0.0 6.19406271 16.792524338 12.437296867
153 2 0.0 13.883936882 3.101474524 0.934702754
154 2 0.0 3.844937086 3.101474524 5.751296997
155 2 0.0 16.233062744 16.792524338 7.620702267
156 2 0.0 13.883936882 6.845525265 0.934702754
157 2 0.0 6.19406271 13.048474312 12.437296867
158 2 0.0 16.233062744 13.048474312 7.620702267
159 2 0.0 3.844937086 6.845525265 5.751296997
160 2 0.0 3.953357935 16.820375443 0.36238119
161 2 0.0 16.124641418 3.073622704 13.009617805
162 2 0.0 6.085641384 3.073622704 7.048381329
163 2 0.0 13.992358208 16.820375443 6.323618889
164 2 0.0 16.124641418 6.873376369 13.009617805
165 2 0.0 3.953357935 13.020622253 0.36238119
166 2 0.0 13.992358208 13.020622253 6.323618889
167 2 0.0 6.085641384 6.873376369 7.048381329
168 2 0.0 1.780918479 16.653266907 12.327646255
169 2 0.0 18.297080994 3.240732431 1.044353247
170 2 0.0 8.258081436 3.240732431 5.641646862
171 2 0.0 11.819917679 16.653266907 7.730353355
172 2 0.0 18.297080994 6.70626688 1.044353247
173 2 0.0 1.780918479 13.187731743 12.327646255
174 2 0.0 11.819917679 13.187731743 7.730353355
175 2 0.0 8.258081436 6.70626688 5.641646862
176 2 0.0 2.361172676 16.758705139 9.799001694
177 2 0.0 17.716825485 3.135294199 3.572998285
178 2 0.0 7.677826881 3.135294199 3.113001585
179 2 0.0 12.400173187 16.758705139 10.258997917
180 2 0.0 17.716825485 6.811705589 3.572998285
181 2 0.0 2.361172676 13.08229351 9.799001694
182 2 0.0 12.400173187 13.08229351 10.258997917
183 2 0.0 7.677826881 6.811705589 3.113001585
184 2 0.0 4.915094376 16.798492432 10.178766251
185 2 0.0 15.162905693 3.095506191 3.19323349
186 2 0.0 5.123905182 3.095506191 3.49276638
187 2 0.0 14.954092979 16.798492432 9.87923336
188 2 0.0 15.162905693 6.851492882 3.19323349
189 2 0.0 4.915094376 13.042506218 10.178766251
190 2 0.0 14.954092979 13.042506218 9.87923336
191 2 0.0 5.123905182 6.851492882 3.49276638
192 2 0.0 6.198078156 18.901288986 10.935621262
193 2 0.0 13.879921913 0.992710531 2.436378241
194 2 0.0 3.840921402 0.992710531 4.249621391
195 2 0.0 16.237077713 18.901288986 9.122378349
196 2 0.0 13.879921913 8.954289436 2.436378241
197 2 0.0 6.198078156 10.939709663 10.935621262
198 2 0.0 16.237077713 10.939709663 9.122378349
199 2 0.0 3.840921402 8.954289436 4.249621391
200 2 0.0 1.578130722 18.879405975 11.061318398
201 2 0.0 18.499868393 1.014593959 2.310681581
202 2 0.0 8.460868835 1.014593959 4.37531805
203 2 0.0 11.61713028 18.879405975 8.996681213
204 2 0.0 18.499868393 8.932405472 2.310681581
205 2 0.0 1.578130722 10.961593628 11.061318398
206 2 0.0 11.61713028 10.961593628 8.996681213
207 2 0.0 8.460868835 8.932405472 4.37531805
208 2 0.0 8.382564545 2.524548531 8.146222115
209 2 0.0 11.69543457 17.369449615 5.225777626
210 2 0.0 1.656435132 17.369449615 1.460222363
211 2 0.0 18.421564102 2.524548531 11.911777496
212 2 0.0 11.69543457 12.47154808 5.225777626
213 2 0.0 8.382564545 7.422450542 8.146222115
214 2 0.0 18.421564102 7.422450542 11.911777496
215 2 0.0 1.656435132 12.47154808 1.460222363
216 2 0.0 8.189815521 19.852222443 7.862735748
217 2 0.0 11.888183594 0.041777398 5.509263992
218 2 0.0 1.849183559 0.041777398 1.176735997
219 2 0.0 18.228815079 19.852222443 12.195263863
220 2 0.0 11.888183594 9.905221939 5.509263992
221 2 0.0 8.189815521 9.988777161 7.862735748
222 2 0.0 18.228815079 9.988777161 12.195263863
223 2 0.0 1.849183559 9.905221939 1.176735997
224 2 0.0 8.043246269 17.250085831 7.727678776
225 2 0.0 12.034753799 2.643912554 5.644320965
226 2 0.0 1.995753407 2.643912554 1.041678667
227 2 0.0 18.082244873 17.250085831 12.330321312
228 2 0.0 12.034753799 7.303087234 5.644320965
229 2 0.0 8.043246269 12.590911865 7.727678776
230 2 0.0 18.082244873 12.590911865 12.330321312
231 2 0.0 1.995753407 7.303087234 1.041678667
232 2 0.0 3.840921402 2.590198755 8.289302826
233 2 0.0 16.237077713 17.303800583 5.082697392
234 2 0.0 6.198078156 17.303800583 1.603302598
235 2 0.0 13.879921913 2.590198755 11.768696785
236 2 0.0 16.237077713 12.53719902 5.082697392
237 2 0.0 3.840921402 7.356801033 8.289302826
238 2 0.0 13.879921913 7.356801033 11.768696785
239 2 0.0 6.198078156 12.53719902 1.603302598
240 2 0.0 3.903162956 0.007957599 7.940293789
241 2 0.0 16.174835205 19.886041641 5.431705952
242 2 0.0 6.135836124 19.886041641 1.25429368
243 2 0.0 13.942162514 0.007957599 12.117706299
244 2 0.0 16.174835205 9.954957008 5.431705952
245 2 0.0 3.903162956 9.939042091 7.940293789
246 2 0.0 13.942162514 9.939042091 12.117706299
247 2 0.0 6.135836124 9.954957008 1.25429368
248 2 0.0 3.945326805 17.313747406 7.81192255
249 2 0.0 16.132671356 2.580251694 5.560077667
250 2 0.0 6.093672752 2.580251694 1.125922322
251 2 0.0 13.984326363 17.313747406 12.246076584
252 2 0.0 16.132671356 7.366747856 5.560077667
253 2 0.0 3.945326805 12.527251244 7.81192255
254 2 0.0 13.984326363 12.527251244 12.246076584
255 2 0.0 6.093672752 7.366747856 1.125922322
256 2 0.0 20.007726669 0.974805951 10.59463501
257 2 0.0 0.070272997 18.919193268 2.777364254
258 2 0.0 10.109272003 18.919193268 3.908635378
259 2 0.0 9.968726158 0.974805951 9.463364601
260 2 0.0 0.070272997 10.921806335 2.777364254
261 2 0.0 20.007726669 8.972193718 10.59463501
262 2 0.0 9.968726158 8.972193718 9.463364601
263 2 0.0 10.109272003 10.921806335 3.908635378
264 2 0.0 19.98764801 16.929794312 10.558530807
265 2 0.0 0.090350993 2.96420598 2.813468695
266 2 0.0 10.129349709 2.96420598 3.872531414
267 2 0.0 9.948648453 16.929794312 9.499468803
268 2 0.0 0.090350993 6.982793808 2.813468695
269 2 0.0 19.98764801 12.911205292 10.558530807
270 2 0.0 9.948648453 12.911205292 9.499468803
271 2 0.0 10.129349709 6.982793808 3.872531414
272 2 0.0 8.486969948 14.920499802 8.703834534
273 2 0.0 11.591029167 4.973499775 4.668165207
274 2 0.0 1.55202961 4.973499775 2.017834902
275 2 0.0 18.525970459 14.920499802 11.354165077
276 2 0.0 3.86300683 14.920499802 8.718544006
277 2 0.0 16.214992523 4.973499775 4.653455734
278 2 0.0 6.175992966 4.973499775 2.032544136
279 2 0.0 13.902006149 14.920499802 11.339455605
280 2 0.0 5.70415926 14.920499802 0.796971202
281 2 0.0 14.373839378 4.973499775 12.575028419
282 2 0.0 4.334840298 4.973499775 7.482971191
283 2 0.0 15.743159294 14.920499802 5.889028549
284 2 0.0 2.208579779 14.920499802 0.829063952
285 2 0.0 17.869419098 4.973499775 12.542936325
286 2 0.0 7.83041954 4.973499775 7.515063763
287 2 0.0 12.247579575 14.920499802 5.856935978
288 2 0.0 9.6551477708 11.7827818178 12.6177528847
289 3 0.0 11.453495026 12.529438972 9.120371819
290 4 0.0 11.653986647 13.2846911848 11.27956943
291 4 0.0 9.2059783807 11.2071509915 13.2861278177
292 4 0.0 10.6211325973 11.6671694876 12.802504669
