# LAMMPS data file written by Ovito Basic 3.0.0-dev791
790 atoms
4 atom types
0.0 34.3810005188 xlo xhi
0.0 34.3810005188 ylo yhi
0.0 34.3810005188 zlo zhi

Atoms  # charge

1 1 0.0 7.470991 7.467554 26.913446
2 1 0.0 26.910009 26.913446 7.467554
3 1 0.0 7.470991 26.913446 7.467554
4 1 0.0 26.910009 7.467554 26.913446
5 1 0.0 26.910009 26.913446 26.913446
6 1 0.0 7.470991 7.467554 7.467554
7 1 0.0 26.910009 7.467554 7.467554
8 1 0.0 7.470991 26.913446 26.913446
9 1 0.0 9.722946 7.470991 24.658054
10 1 0.0 24.658054 26.910009 9.722946
11 1 0.0 24.658054 7.470991 9.722946
12 1 0.0 9.722946 26.910009 24.658054
13 1 0.0 9.722946 26.910009 9.722946
14 1 0.0 24.658054 7.470991 24.658054
15 1 0.0 24.658054 26.910009 24.658054
16 1 0.0 9.722946 7.470991 9.722946
17 1 0.0 7.470991 24.658054 9.722946
18 1 0.0 26.910009 9.722946 24.658054
19 1 0.0 7.470991 9.722946 24.658054
20 1 0.0 26.910009 24.658054 9.722946
21 1 0.0 26.910009 9.722946 9.722946
22 1 0.0 7.470991 24.658054 24.658054
23 1 0.0 26.910009 24.658054 24.658054
24 1 0.0 7.470991 9.722946 9.722946
25 1 0.0 24.658054 9.722946 7.470991
26 1 0.0 9.722946 24.658054 26.910009
27 1 0.0 9.722946 24.658054 7.470991
28 1 0.0 24.658054 9.722946 26.910009
29 1 0.0 9.722946 9.722946 26.910009
30 1 0.0 24.658054 24.658054 7.470991
31 1 0.0 24.658054 24.658054 26.910009
32 1 0.0 9.722946 9.722946 7.470991
33 2 0.0 24.162968 17.888435 27.408533
34 2 0.0 10.218033 16.492565 6.972467
35 2 0.0 10.218033 17.888435 6.972467
36 2 0.0 24.162968 16.492565 27.408533
37 2 0.0 24.162968 16.492565 6.972467
38 2 0.0 10.218033 17.888435 27.408533
39 2 0.0 10.218033 16.492565 27.408533
40 2 0.0 24.162968 17.888435 6.972467
41 2 0.0 17.888435 10.218033 6.972467
42 2 0.0 16.492565 24.162968 27.408533
43 2 0.0 17.888435 24.162968 27.408533
44 2 0.0 16.492565 10.218033 6.972467
45 2 0.0 16.492565 24.162968 6.972467
46 2 0.0 17.888435 10.218033 27.408533
47 2 0.0 16.492565 10.218033 27.408533
48 2 0.0 17.888435 24.162968 6.972467
49 2 0.0 10.218033 24.162968 0.697934
50 2 0.0 24.162968 10.218033 33.683064
51 2 0.0 24.162968 10.218033 0.697934
52 2 0.0 10.218033 24.162968 33.683064
53 2 0.0 24.162968 24.162968 33.683064
54 2 0.0 10.218033 10.218033 0.697934
55 2 0.0 10.218033 10.218033 33.683064
56 2 0.0 24.162968 24.162968 0.697934
57 2 0.0 24.162968 0.697934 10.218033
58 2 0.0 10.218033 33.683064 24.162968
59 2 0.0 10.218033 0.697934 24.162968
60 2 0.0 24.162968 33.683064 10.218033
61 2 0.0 24.162968 33.683064 24.162968
62 2 0.0 10.218033 0.697934 10.218033
63 2 0.0 10.218033 33.683064 10.218033
64 2 0.0 24.162968 0.697934 24.162968
65 2 0.0 17.888435 27.408533 24.162968
66 2 0.0 16.492565 6.972467 10.218033
67 2 0.0 17.888435 6.972467 10.218033
68 2 0.0 16.492565 27.408533 24.162968
69 2 0.0 16.492565 6.972467 24.162968
70 2 0.0 17.888435 27.408533 10.218033
71 2 0.0 16.492565 27.408533 10.218033
72 2 0.0 17.888435 6.972467 24.162968
73 2 0.0 10.218033 6.972467 17.888435
74 2 0.0 24.162968 27.408533 16.492565
75 2 0.0 24.162968 27.408533 17.888435
76 2 0.0 10.218033 6.972467 16.492565
77 2 0.0 24.162968 6.972467 16.492565
78 2 0.0 10.218033 27.408533 17.888435
79 2 0.0 10.218033 27.408533 16.492565
80 2 0.0 24.162968 6.972467 17.888435
81 2 0.0 6.972467 17.888435 10.218033
82 2 0.0 27.408533 16.492565 24.162968
83 2 0.0 27.408533 17.888435 24.162968
84 2 0.0 6.972467 16.492565 10.218033
85 2 0.0 6.972467 16.492565 24.162968
86 2 0.0 27.408533 17.888435 10.218033
87 2 0.0 27.408533 16.492565 10.218033
88 2 0.0 6.972467 17.888435 24.162968
89 2 0.0 0.697934 10.218033 24.162968
90 2 0.0 33.683064 24.162968 10.218033
91 2 0.0 0.697934 24.162968 10.218033
92 2 0.0 33.683064 10.218033 24.162968
93 2 0.0 33.683064 24.162968 24.162968
94 2 0.0 0.697934 10.218033 10.218033
95 2 0.0 33.683064 10.218033 10.218033
96 2 0.0 0.697934 24.162968 24.162968
97 2 0.0 27.408533 24.162968 17.888435
98 2 0.0 6.972467 10.218033 16.492565
99 2 0.0 6.972467 10.218033 17.888435
100 2 0.0 27.408533 24.162968 16.492565
101 2 0.0 6.972467 24.162968 16.492565
102 2 0.0 27.408533 10.218033 17.888435
103 2 0.0 27.408533 10.218033 16.492565
104 2 0.0 6.972467 24.162968 17.888435
105 2 0.0 6.972467 0.697934 27.408533
106 2 0.0 27.408533 33.683064 6.972467
107 2 0.0 27.408533 0.697934 6.972467
108 2 0.0 6.972467 33.683064 27.408533
109 2 0.0 6.972467 33.683064 6.972467
110 2 0.0 27.408533 0.697934 27.408533
111 2 0.0 27.408533 33.683064 27.408533
112 2 0.0 6.972467 0.697934 6.972467
113 2 0.0 0.697934 27.408533 6.972467
114 2 0.0 33.683064 6.972467 27.408533
115 2 0.0 0.697934 6.972467 27.408533
116 2 0.0 33.683064 27.408533 6.972467
117 2 0.0 33.683064 6.972467 6.972467
118 2 0.0 0.697934 27.408533 27.408533
119 2 0.0 33.683064 27.408533 27.408533
120 2 0.0 0.697934 6.972467 6.972467
121 2 0.0 27.408533 6.972467 0.697934
122 2 0.0 6.972467 27.408533 33.683064
123 2 0.0 6.972467 27.408533 0.697934
124 2 0.0 27.408533 6.972467 33.683064
125 2 0.0 6.972467 6.972467 33.683064
126 2 0.0 27.408533 27.408533 0.697934
127 2 0.0 27.408533 27.408533 33.683064
128 2 0.0 6.972467 6.972467 0.697934
129 2 0.0 17.850616 25.785751 25.785751
130 2 0.0 16.530386 8.59525 8.59525
131 2 0.0 17.850616 8.59525 8.59525
132 2 0.0 16.530386 25.785751 25.785751
133 2 0.0 16.530386 8.59525 25.785751
134 2 0.0 17.850616 25.785751 8.59525
135 2 0.0 16.530386 25.785751 8.59525
136 2 0.0 17.850616 8.59525 25.785751
137 2 0.0 8.59525 17.850616 8.59525
138 2 0.0 25.785751 16.530386 25.785751
139 2 0.0 25.785751 17.850616 25.785751
140 2 0.0 8.59525 16.530386 8.59525
141 2 0.0 8.59525 16.530386 25.785751
142 2 0.0 25.785751 17.850616 8.59525
143 2 0.0 25.785751 16.530386 8.59525
144 2 0.0 8.59525 17.850616 25.785751
145 2 0.0 25.785751 25.785751 17.850616
146 2 0.0 8.59525 8.59525 16.530386
147 2 0.0 8.59525 8.59525 17.850616
148 2 0.0 25.785751 25.785751 16.530386
149 2 0.0 8.59525 25.785751 16.530386
150 2 0.0 25.785751 8.59525 17.850616
151 2 0.0 25.785751 8.59525 16.530386
152 2 0.0 8.59525 25.785751 17.850616
153 2 0.0 8.59525 0.660115 25.785751
154 2 0.0 25.785751 33.720886 8.59525
155 2 0.0 25.785751 0.660115 8.59525
156 2 0.0 8.59525 33.720886 25.785751
157 2 0.0 8.59525 33.720886 8.59525
158 2 0.0 25.785751 0.660115 25.785751
159 2 0.0 25.785751 33.720886 25.785751
160 2 0.0 8.59525 0.660115 8.59525
161 2 0.0 0.660115 25.785751 8.59525
162 2 0.0 33.720886 8.59525 25.785751
163 2 0.0 0.660115 8.59525 25.785751
164 2 0.0 33.720886 25.785751 8.59525
165 2 0.0 33.720886 8.59525 8.59525
166 2 0.0 0.660115 25.785751 25.785751
167 2 0.0 33.720886 25.785751 25.785751
168 2 0.0 0.660115 8.59525 8.59525
169 2 0.0 25.785751 8.59525 0.660115
170 2 0.0 8.59525 25.785751 33.720886
171 2 0.0 8.59525 25.785751 0.660115
172 2 0.0 25.785751 8.59525 33.720886
173 2 0.0 8.59525 8.59525 33.720886
174 2 0.0 25.785751 25.785751 0.660115
175 2 0.0 25.785751 25.785751 33.720886
176 2 0.0 8.59525 8.59525 0.660115
177 2 0.0 24.984673 18.662008 26.586828
178 2 0.0 9.396327 15.718993 7.794173
179 2 0.0 9.396327 18.662008 7.794173
180 2 0.0 24.984673 15.718993 26.586828
181 2 0.0 24.984673 15.718993 7.794173
182 2 0.0 9.396327 18.662008 26.586828
183 2 0.0 9.396327 15.718993 26.586828
184 2 0.0 24.984673 18.662008 7.794173
185 2 0.0 18.662008 9.396327 7.794173
186 2 0.0 15.718993 24.984673 26.586828
187 2 0.0 18.662008 24.984673 26.586828
188 2 0.0 15.718993 9.396327 7.794173
189 2 0.0 15.718993 24.984673 7.794173
190 2 0.0 18.662008 9.396327 26.586828
191 2 0.0 15.718993 9.396327 26.586828
192 2 0.0 18.662008 24.984673 7.794173
193 2 0.0 9.396327 24.984673 1.471507
194 2 0.0 24.984673 9.396327 32.909492
195 2 0.0 24.984673 9.396327 1.471507
196 2 0.0 9.396327 24.984673 32.909492
197 2 0.0 24.984673 24.984673 32.909492
198 2 0.0 9.396327 9.396327 1.471507
199 2 0.0 9.396327 9.396327 32.909492
200 2 0.0 24.984673 24.984673 1.471507
201 2 0.0 24.984673 1.471507 9.396327
202 2 0.0 9.396327 32.909492 24.984673
203 2 0.0 9.396327 1.471507 24.984673
204 2 0.0 24.984673 32.909492 9.396327
205 2 0.0 24.984673 32.909492 24.984673
206 2 0.0 9.396327 1.471507 9.396327
207 2 0.0 9.396327 32.909492 9.396327
208 2 0.0 24.984673 1.471507 24.984673
209 2 0.0 18.662008 26.586828 24.984673
210 2 0.0 15.718993 7.794173 9.396327
211 2 0.0 18.662008 7.794173 9.396327
212 2 0.0 15.718993 26.586828 24.984673
213 2 0.0 15.718993 7.794173 24.984673
214 2 0.0 18.662008 26.586828 9.396327
215 2 0.0 15.718993 26.586828 9.396327
216 2 0.0 18.662008 7.794173 24.984673
217 2 0.0 9.396327 7.794173 18.662008
218 2 0.0 24.984673 26.586828 15.718993
219 2 0.0 24.984673 26.586828 18.662008
220 2 0.0 9.396327 7.794173 15.718993
221 2 0.0 24.984673 7.794173 15.718993
222 2 0.0 9.396327 26.586828 18.662008
223 2 0.0 9.396327 26.586828 15.718993
224 2 0.0 24.984673 7.794173 18.662008
225 2 0.0 7.794173 18.662008 9.396327
226 2 0.0 26.586828 15.718993 24.984673
227 2 0.0 26.586828 18.662008 24.984673
228 2 0.0 7.794173 15.718993 9.396327
229 2 0.0 7.794173 15.718993 24.984673
230 2 0.0 26.586828 18.662008 9.396327
231 2 0.0 26.586828 15.718993 9.396327
232 2 0.0 7.794173 18.662008 24.984673
233 2 0.0 1.471507 9.396327 24.984673
234 2 0.0 32.909492 24.984673 9.396327
235 2 0.0 1.471507 24.984673 9.396327
236 2 0.0 32.909492 9.396327 24.984673
237 2 0.0 32.909492 24.984673 24.984673
238 2 0.0 1.471507 9.396327 9.396327
239 2 0.0 32.909492 9.396327 9.396327
240 2 0.0 1.471507 24.984673 24.984673
241 2 0.0 26.586828 24.984673 18.662008
242 2 0.0 7.794173 9.396327 15.718993
243 2 0.0 7.794173 9.396327 18.662008
244 2 0.0 26.586828 24.984673 15.718993
245 2 0.0 7.794173 24.984673 15.718993
246 2 0.0 26.586828 9.396327 18.662008
247 2 0.0 26.586828 9.396327 15.718993
248 2 0.0 7.794173 24.984673 18.662008
249 2 0.0 7.794173 1.471507 26.586828
250 2 0.0 26.586828 32.909492 7.794173
251 2 0.0 26.586828 1.471507 7.794173
252 2 0.0 7.794173 32.909492 26.586828
253 2 0.0 7.794173 32.909492 7.794173
254 2 0.0 26.586828 1.471507 26.586828
255 2 0.0 26.586828 32.909492 26.586828
256 2 0.0 7.794173 1.471507 7.794173
257 2 0.0 1.471507 26.586828 7.794173
258 2 0.0 32.909492 7.794173 26.586828
259 2 0.0 1.471507 7.794173 26.586828
260 2 0.0 32.909492 26.586828 7.794173
261 2 0.0 32.909492 7.794173 7.794173
262 2 0.0 1.471507 26.586828 26.586828
263 2 0.0 32.909492 26.586828 26.586828
264 2 0.0 1.471507 7.794173 7.794173
265 2 0.0 26.586828 7.794173 1.471507
266 2 0.0 7.794173 26.586828 32.909492
267 2 0.0 7.794173 26.586828 1.471507
268 2 0.0 26.586828 7.794173 32.909492
269 2 0.0 7.794173 7.794173 32.909492
270 2 0.0 26.586828 26.586828 1.471507
271 2 0.0 26.586828 26.586828 32.909492
272 2 0.0 7.794173 7.794173 1.471507
273 2 0.0 24.943415 20.055582 26.628086
274 2 0.0 9.437585 14.325417 7.752916
275 2 0.0 9.437585 20.055582 7.752916
276 2 0.0 24.943415 14.325417 26.628086
277 2 0.0 24.943415 14.325417 7.752916
278 2 0.0 9.437585 20.055582 26.628086
279 2 0.0 9.437585 14.325417 26.628086
280 2 0.0 24.943415 20.055582 7.752916
281 2 0.0 20.055582 9.437585 7.752916
282 2 0.0 14.325417 24.943415 26.628086
283 2 0.0 20.055582 24.943415 26.628086
284 2 0.0 14.325417 9.437585 7.752916
285 2 0.0 14.325417 24.943415 7.752916
286 2 0.0 20.055582 9.437585 26.628086
287 2 0.0 14.325417 9.437585 26.628086
288 2 0.0 20.055582 24.943415 7.752916
289 2 0.0 9.437585 24.943415 2.865083
290 2 0.0 24.943415 9.437585 31.515919
291 2 0.0 24.943415 9.437585 2.865083
292 2 0.0 9.437585 24.943415 31.515919
293 2 0.0 24.943415 24.943415 31.515919
294 2 0.0 9.437585 9.437585 2.865083
295 2 0.0 9.437585 9.437585 31.515919
296 2 0.0 24.943415 24.943415 2.865083
297 2 0.0 24.943415 2.865083 9.437585
298 2 0.0 9.437585 31.515919 24.943415
299 2 0.0 9.437585 2.865083 24.943415
300 2 0.0 24.943415 31.515919 9.437585
301 2 0.0 24.943415 31.515919 24.943415
302 2 0.0 9.437585 2.865083 9.437585
303 2 0.0 9.437585 31.515919 9.437585
304 2 0.0 24.943415 2.865083 24.943415
305 2 0.0 20.055582 26.628086 24.943415
306 2 0.0 14.325417 7.752916 9.437585
307 2 0.0 20.055582 7.752916 9.437585
308 2 0.0 14.325417 26.628086 24.943415
309 2 0.0 14.325417 7.752916 24.943415
310 2 0.0 20.055582 26.628086 9.437585
311 2 0.0 14.325417 26.628086 9.437585
312 2 0.0 20.055582 7.752916 24.943415
313 2 0.0 9.437585 7.752916 20.055582
314 2 0.0 24.943415 26.628086 14.325417
315 2 0.0 24.943415 26.628086 20.055582
316 2 0.0 9.437585 7.752916 14.325417
317 2 0.0 24.943415 7.752916 14.325417
318 2 0.0 9.437585 26.628086 20.055582
319 2 0.0 9.437585 26.628086 14.325417
320 2 0.0 24.943415 7.752916 20.055582
321 2 0.0 7.752916 20.055582 9.437585
322 2 0.0 26.628086 14.325417 24.943415
323 2 0.0 26.628086 20.055582 24.943415
324 2 0.0 7.752916 14.325417 9.437585
325 2 0.0 7.752916 14.325417 24.943415
326 2 0.0 26.628086 20.055582 9.437585
327 2 0.0 26.628086 14.325417 9.437585
328 2 0.0 7.752916 20.055582 24.943415
329 2 0.0 2.865083 9.437585 24.943415
330 2 0.0 31.515919 24.943415 9.437585
331 2 0.0 2.865083 24.943415 9.437585
332 2 0.0 31.515919 9.437585 24.943415
333 2 0.0 31.515919 24.943415 24.943415
334 2 0.0 2.865083 9.437585 9.437585
335 2 0.0 31.515919 9.437585 9.437585
336 2 0.0 2.865083 24.943415 24.943415
337 2 0.0 26.628086 24.943415 20.055582
338 2 0.0 7.752916 9.437585 14.325417
339 2 0.0 7.752916 9.437585 20.055582
340 2 0.0 26.628086 24.943415 14.325417
341 2 0.0 7.752916 24.943415 14.325417
342 2 0.0 26.628086 9.437585 20.055582
343 2 0.0 26.628086 9.437585 14.325417
344 2 0.0 7.752916 24.943415 20.055582
345 2 0.0 7.752916 2.865083 26.628086
346 2 0.0 26.628086 31.515919 7.752916
347 2 0.0 26.628086 2.865083 7.752916
348 2 0.0 7.752916 31.515919 26.628086
349 2 0.0 7.752916 31.515919 7.752916
350 2 0.0 26.628086 2.865083 26.628086
351 2 0.0 26.628086 31.515919 26.628086
352 2 0.0 7.752916 2.865083 7.752916
353 2 0.0 2.865083 26.628086 7.752916
354 2 0.0 31.515919 7.752916 26.628086
355 2 0.0 2.865083 7.752916 26.628086
356 2 0.0 31.515919 26.628086 7.752916
357 2 0.0 31.515919 7.752916 7.752916
358 2 0.0 2.865083 26.628086 26.628086
359 2 0.0 31.515919 26.628086 26.628086
360 2 0.0 2.865083 7.752916 7.752916
361 2 0.0 26.628086 7.752916 2.865083
362 2 0.0 7.752916 26.628086 31.515919
363 2 0.0 7.752916 26.628086 2.865083
364 2 0.0 26.628086 7.752916 31.515919
365 2 0.0 7.752916 7.752916 31.515919
366 2 0.0 26.628086 26.628086 2.865083
367 2 0.0 26.628086 26.628086 31.515919
368 2 0.0 7.752916 7.752916 2.865083
369 2 0.0 20.793629 25.785751 25.785751
370 2 0.0 13.587372 8.59525 8.59525
371 2 0.0 20.793629 8.59525 8.59525
372 2 0.0 13.587372 25.785751 25.785751
373 2 0.0 13.587372 8.59525 25.785751
374 2 0.0 20.793629 25.785751 8.59525
375 2 0.0 13.587372 25.785751 8.59525
376 2 0.0 20.793629 8.59525 25.785751
377 2 0.0 8.59525 20.793629 8.59525
378 2 0.0 25.785751 13.587372 25.785751
379 2 0.0 25.785751 20.793629 25.785751
380 2 0.0 8.59525 13.587372 8.59525
381 2 0.0 8.59525 13.587372 25.785751
382 2 0.0 25.785751 20.793629 8.59525
383 2 0.0 25.785751 13.587372 8.59525
384 2 0.0 8.59525 20.793629 25.785751
385 2 0.0 25.785751 25.785751 20.793629
386 2 0.0 8.59525 8.59525 13.587372
387 2 0.0 8.59525 8.59525 20.793629
388 2 0.0 25.785751 25.785751 13.587372
389 2 0.0 8.59525 25.785751 13.587372
390 2 0.0 25.785751 8.59525 20.793629
391 2 0.0 25.785751 8.59525 13.587372
392 2 0.0 8.59525 25.785751 20.793629
393 2 0.0 8.59525 3.603129 25.785751
394 2 0.0 25.785751 30.777872 8.59525
395 2 0.0 25.785751 3.603129 8.59525
396 2 0.0 8.59525 30.777872 25.785751
397 2 0.0 8.59525 30.777872 8.59525
398 2 0.0 25.785751 3.603129 25.785751
399 2 0.0 25.785751 30.777872 25.785751
400 2 0.0 8.59525 3.603129 8.59525
401 2 0.0 3.603129 25.785751 8.59525
402 2 0.0 30.777872 8.59525 25.785751
403 2 0.0 3.603129 8.59525 25.785751
404 2 0.0 30.777872 25.785751 8.59525
405 2 0.0 30.777872 8.59525 8.59525
406 2 0.0 3.603129 25.785751 25.785751
407 2 0.0 30.777872 25.785751 25.785751
408 2 0.0 3.603129 8.59525 8.59525
409 2 0.0 25.785751 8.59525 3.603129
410 2 0.0 8.59525 25.785751 30.777872
411 2 0.0 8.59525 25.785751 3.603129
412 2 0.0 25.785751 8.59525 30.777872
413 2 0.0 8.59525 8.59525 30.777872
414 2 0.0 25.785751 25.785751 3.603129
415 2 0.0 25.785751 25.785751 30.777872
416 2 0.0 8.59525 8.59525 3.603129
417 2 0.0 22.13105 25.785751 25.785751
418 2 0.0 12.24995 8.59525 8.59525
419 2 0.0 22.13105 8.59525 8.59525
420 2 0.0 12.24995 25.785751 25.785751
421 2 0.0 12.24995 8.59525 25.785751
422 2 0.0 22.13105 25.785751 8.59525
423 2 0.0 12.24995 25.785751 8.59525
424 2 0.0 22.13105 8.59525 25.785751
425 2 0.0 8.59525 22.13105 8.59525
426 2 0.0 25.785751 12.24995 25.785751
427 2 0.0 25.785751 22.13105 25.785751
428 2 0.0 8.59525 12.24995 8.59525
429 2 0.0 8.59525 12.24995 25.785751
430 2 0.0 25.785751 22.13105 8.59525
431 2 0.0 25.785751 12.24995 8.59525
432 2 0.0 8.59525 22.13105 25.785751
433 2 0.0 25.785751 25.785751 22.13105
434 2 0.0 8.59525 8.59525 12.24995
435 2 0.0 8.59525 8.59525 22.13105
436 2 0.0 25.785751 25.785751 12.24995
437 2 0.0 8.59525 25.785751 12.24995
438 2 0.0 25.785751 8.59525 22.13105
439 2 0.0 25.785751 8.59525 12.24995
440 2 0.0 8.59525 25.785751 22.13105
441 2 0.0 8.59525 4.94055 25.785751
442 2 0.0 25.785751 29.440451 8.59525
443 2 0.0 25.785751 4.94055 8.59525
444 2 0.0 8.59525 29.440451 25.785751
445 2 0.0 8.59525 29.440451 8.59525
446 2 0.0 25.785751 4.94055 25.785751
447 2 0.0 25.785751 29.440451 25.785751
448 2 0.0 8.59525 4.94055 8.59525
449 2 0.0 4.94055 25.785751 8.59525
450 2 0.0 29.440451 8.59525 25.785751
451 2 0.0 4.94055 8.59525 25.785751
452 2 0.0 29.440451 25.785751 8.59525
453 2 0.0 29.440451 8.59525 8.59525
454 2 0.0 4.94055 25.785751 25.785751
455 2 0.0 29.440451 25.785751 25.785751
456 2 0.0 4.94055 8.59525 8.59525
457 2 0.0 25.785751 8.59525 4.94055
458 2 0.0 8.59525 25.785751 29.440451
459 2 0.0 8.59525 25.785751 4.94055
460 2 0.0 25.785751 8.59525 29.440451
461 2 0.0 8.59525 8.59525 29.440451
462 2 0.0 25.785751 25.785751 4.94055
463 2 0.0 25.785751 25.785751 29.440451
464 2 0.0 8.59525 8.59525 4.94055
465 3 0.0 16.7185333405 18.2795109931 12.8843024898
466 3 0.0 18.0118631522 17.4349700567 13.2351706125
467 3 0.0 17.0329334061 17.937634188 21.7041824827
468 3 0.0 18.3262632178 17.0964477569 21.3453465579
469 3 0.0 16.6440263623 13.961035903 16.7093670431
470 3 0.0 17.937356174 13.3078323689 17.3494318647
471 3 0.0 17.1086390153 20.9337227165 17.9960484038
472 3 0.0 18.4019688269 21.2959588007 17.1563205597
473 3 0.0 2.6056561902 17.4415057725 17.8889182379
474 3 0.0 3.8989860019 18.0485677186 17.2049345931
475 3 0.0 31.5948870893 15.4385752076 17.4635941828
476 3 0.0 32.888216901 16.2823226831 17.816366107
477 3 0.0 16.8671704673 17.9197263457 2.3510075519
478 3 0.0 18.1605002789 17.1905002829 2.9029017286
479 3 0.0 16.8671704673 16.4980857319 31.1605965769
480 3 0.0 18.1605002789 17.1202428016 31.8308789156
481 3 0.0 16.8671704673 31.5734052891 16.3831970342
482 3 0.0 18.1605002789 31.5230259619 17.2963343494
483 3 0.0 16.8671704673 2.7157367902 18.2307605541
484 3 0.0 18.1605002789 2.1553988662 17.508002473
485 3 0.0 23.581928 18.328512 27.989573
486 3 0.0 10.799072 16.052488 6.391428
487 3 0.0 10.799072 18.328512 6.391428
488 3 0.0 23.581928 16.052488 27.989573
489 3 0.0 23.581928 16.052488 6.391428
490 3 0.0 10.799072 18.328512 27.989573
491 3 0.0 10.799072 16.052488 27.989573
492 3 0.0 23.581928 18.328512 6.391428
493 3 0.0 18.328512 10.799072 6.391428
494 3 0.0 16.052488 23.581928 27.989573
495 3 0.0 18.328512 23.581928 27.989573
496 3 0.0 16.052488 10.799072 6.391428
497 3 0.0 16.052488 23.581928 6.391428
498 3 0.0 18.328512 10.799072 27.989573
499 3 0.0 16.052488 10.799072 27.989573
500 3 0.0 18.328512 23.581928 6.391428
501 3 0.0 10.799072 23.581928 1.138011
502 3 0.0 23.581928 10.799072 33.242989
503 3 0.0 23.581928 10.799072 1.138011
504 3 0.0 10.799072 23.581928 33.242989
505 3 0.0 23.581928 23.581928 33.242989
506 3 0.0 10.799072 10.799072 1.138011
507 3 0.0 10.799072 10.799072 33.242989
508 3 0.0 23.581928 23.581928 1.138011
509 3 0.0 23.581928 1.138011 10.799072
510 3 0.0 10.799072 33.242989 23.581928
511 3 0.0 10.799072 1.138011 23.581928
512 3 0.0 23.581928 33.242989 10.799072
513 3 0.0 23.581928 33.242989 23.581928
514 3 0.0 10.799072 1.138011 10.799072
515 3 0.0 10.799072 33.242989 10.799072
516 3 0.0 23.581928 1.138011 23.581928
517 3 0.0 18.328512 27.989573 23.581928
518 3 0.0 16.052488 6.391428 10.799072
519 3 0.0 18.328512 6.391428 10.799072
520 3 0.0 16.052488 27.989573 23.581928
521 3 0.0 16.052488 6.391428 23.581928
522 3 0.0 18.328512 27.989573 10.799072
523 3 0.0 16.052488 27.989573 10.799072
524 3 0.0 18.328512 6.391428 23.581928
525 3 0.0 10.799072 6.391428 18.328512
526 3 0.0 23.581928 27.989573 16.052488
527 3 0.0 23.581928 27.989573 18.328512
528 3 0.0 10.799072 6.391428 16.052488
529 3 0.0 23.581928 6.391428 16.052488
530 3 0.0 10.799072 27.989573 18.328512
531 3 0.0 10.799072 27.989573 16.052488
532 3 0.0 23.581928 6.391428 18.328512
533 3 0.0 6.391428 18.328512 10.799072
534 3 0.0 27.989573 16.052488 23.581928
535 3 0.0 27.989573 18.328512 23.581928
536 3 0.0 6.391428 16.052488 10.799072
537 3 0.0 6.391428 16.052488 23.581928
538 3 0.0 27.989573 18.328512 10.799072
539 3 0.0 27.989573 16.052488 10.799072
540 3 0.0 6.391428 18.328512 23.581928
541 3 0.0 1.138011 10.799072 23.581928
542 3 0.0 33.242989 23.581928 10.799072
543 3 0.0 1.138011 23.581928 10.799072
544 3 0.0 33.242989 10.799072 23.581928
545 3 0.0 33.242989 23.581928 23.581928
546 3 0.0 1.138011 10.799072 10.799072
547 3 0.0 33.242989 10.799072 10.799072
548 3 0.0 1.138011 23.581928 23.581928
549 3 0.0 27.989573 23.581928 18.328512
550 3 0.0 6.391428 10.799072 16.052488
551 3 0.0 6.391428 10.799072 18.328512
552 3 0.0 27.989573 23.581928 16.052488
553 3 0.0 6.391428 23.581928 16.052488
554 3 0.0 27.989573 10.799072 18.328512
555 3 0.0 27.989573 10.799072 16.052488
556 3 0.0 6.391428 23.581928 18.328512
557 3 0.0 6.391428 1.138011 27.989573
558 3 0.0 27.989573 33.242989 6.391428
559 3 0.0 27.989573 1.138011 6.391428
560 3 0.0 6.391428 33.242989 27.989573
561 3 0.0 6.391428 33.242989 6.391428
562 3 0.0 27.989573 1.138011 27.989573
563 3 0.0 27.989573 33.242989 27.989573
564 3 0.0 6.391428 1.138011 6.391428
565 3 0.0 1.138011 27.989573 6.391428
566 3 0.0 33.242989 6.391428 27.989573
567 3 0.0 1.138011 6.391428 27.989573
568 3 0.0 33.242989 27.989573 6.391428
569 3 0.0 33.242989 6.391428 6.391428
570 3 0.0 1.138011 27.989573 27.989573
571 3 0.0 33.242989 27.989573 27.989573
572 3 0.0 1.138011 6.391428 6.391428
573 3 0.0 27.989573 6.391428 1.138011
574 3 0.0 6.391428 27.989573 33.242989
575 3 0.0 6.391428 27.989573 1.138011
576 3 0.0 27.989573 6.391428 33.242989
577 3 0.0 6.391428 6.391428 33.242989
578 3 0.0 27.989573 27.989573 1.138011
579 3 0.0 27.989573 27.989573 33.242989
580 3 0.0 6.391428 6.391428 1.138011
581 3 0.0 24.362377 20.497952 27.209124
582 3 0.0 10.018624 13.883048 7.171877
583 3 0.0 10.018624 20.497952 7.171877
584 3 0.0 24.362377 13.883048 27.209124
585 3 0.0 24.362377 13.883048 7.171877
586 3 0.0 10.018624 20.497952 27.209124
587 3 0.0 10.018624 13.883048 27.209124
588 3 0.0 24.362377 20.497952 7.171877
589 3 0.0 20.497952 10.018624 7.171877
590 3 0.0 13.883048 24.362377 27.209124
591 3 0.0 20.497952 24.362377 27.209124
592 3 0.0 13.883048 10.018624 7.171877
593 3 0.0 13.883048 24.362377 7.171877
594 3 0.0 20.497952 10.018624 27.209124
595 3 0.0 13.883048 10.018624 27.209124
596 3 0.0 20.497952 24.362377 7.171877
597 3 0.0 10.018624 24.362377 3.307452
598 3 0.0 24.362377 10.018624 31.073549
599 3 0.0 24.362377 10.018624 3.307452
600 3 0.0 10.018624 24.362377 31.073549
601 3 0.0 24.362377 24.362377 31.073549
602 3 0.0 10.018624 10.018624 3.307452
603 3 0.0 10.018624 10.018624 31.073549
604 3 0.0 24.362377 24.362377 3.307452
605 3 0.0 24.362377 3.307452 10.018624
606 3 0.0 10.018624 31.073549 24.362377
607 3 0.0 10.018624 3.307452 24.362377
608 3 0.0 24.362377 31.073549 10.018624
609 3 0.0 24.362377 31.073549 24.362377
610 3 0.0 10.018624 3.307452 10.018624
611 3 0.0 10.018624 31.073549 10.018624
612 3 0.0 24.362377 3.307452 24.362377
613 3 0.0 20.497952 27.209124 24.362377
614 3 0.0 13.883048 7.171877 10.018624
615 3 0.0 20.497952 7.171877 10.018624
616 3 0.0 13.883048 27.209124 24.362377
617 3 0.0 13.883048 7.171877 24.362377
618 3 0.0 20.497952 27.209124 10.018624
619 3 0.0 13.883048 27.209124 10.018624
620 3 0.0 20.497952 7.171877 24.362377
621 3 0.0 10.018624 7.171877 20.497952
622 3 0.0 24.362377 27.209124 13.883048
623 3 0.0 24.362377 27.209124 20.497952
624 3 0.0 10.018624 7.171877 13.883048
625 3 0.0 24.362377 7.171877 13.883048
626 3 0.0 10.018624 27.209124 20.497952
627 3 0.0 10.018624 27.209124 13.883048
628 3 0.0 24.362377 7.171877 20.497952
629 3 0.0 7.171877 20.497952 10.018624
630 3 0.0 27.209124 13.883048 24.362377
631 3 0.0 27.209124 20.497952 24.362377
632 3 0.0 7.171877 13.883048 10.018624
633 3 0.0 7.171877 13.883048 24.362377
634 3 0.0 27.209124 20.497952 10.018624
635 3 0.0 27.209124 13.883048 10.018624
636 3 0.0 7.171877 20.497952 24.362377
637 3 0.0 3.307452 10.018624 24.362377
638 3 0.0 31.073549 24.362377 10.018624
639 3 0.0 3.307452 24.362377 10.018624
640 3 0.0 31.073549 10.018624 24.362377
641 3 0.0 31.073549 24.362377 24.362377
642 3 0.0 3.307452 10.018624 10.018624
643 3 0.0 31.073549 10.018624 10.018624
644 3 0.0 3.307452 24.362377 24.362377
645 3 0.0 27.209124 24.362377 20.497952
646 3 0.0 7.171877 10.018624 13.883048
647 3 0.0 7.171877 10.018624 20.497952
648 3 0.0 27.209124 24.362377 13.883048
649 3 0.0 7.171877 24.362377 13.883048
650 3 0.0 27.209124 10.018624 20.497952
651 3 0.0 27.209124 10.018624 13.883048
652 3 0.0 7.171877 24.362377 20.497952
653 3 0.0 7.171877 3.307452 27.209124
654 3 0.0 27.209124 31.073549 7.171877
655 3 0.0 27.209124 3.307452 7.171877
656 3 0.0 7.171877 31.073549 27.209124
657 3 0.0 7.171877 31.073549 7.171877
658 3 0.0 27.209124 3.307452 27.209124
659 3 0.0 27.209124 31.073549 27.209124
660 3 0.0 7.171877 3.307452 7.171877
661 3 0.0 3.307452 27.209124 7.171877
662 3 0.0 31.073549 7.171877 27.209124
663 3 0.0 3.307452 7.171877 27.209124
664 3 0.0 31.073549 27.209124 7.171877
665 3 0.0 31.073549 7.171877 7.171877
666 3 0.0 3.307452 27.209124 27.209124
667 3 0.0 31.073549 27.209124 27.209124
668 3 0.0 3.307452 7.171877 7.171877
669 3 0.0 27.209124 7.171877 3.307452
670 3 0.0 7.171877 27.209124 31.073549
671 3 0.0 7.171877 27.209124 3.307452
672 3 0.0 27.209124 7.171877 31.073549
673 3 0.0 7.171877 7.171877 31.073549
674 3 0.0 27.209124 27.209124 3.307452
675 3 0.0 27.209124 27.209124 31.073549
676 3 0.0 7.171877 7.171877 3.307452
677 4 0.0 17.0418631522 17.4349700567 13.2351706125
678 4 0.0 17.3562632178 17.0964477569 21.3453465579
679 4 0.0 16.967356174 13.3078323689 17.3494318647
680 4 0.0 17.4319688269 21.2959588007 17.1563205597
681 4 0.0 2.9289860019 18.0485677186 17.2049345931
682 4 0.0 31.918216901 16.2823226831 17.816366107
683 4 0.0 17.1905002789 17.1905002829 2.9029017286
684 4 0.0 17.1905002789 17.1202428016 31.8308789156
685 4 0.0 17.1905002789 31.5230259619 17.2963343494
686 4 0.0 17.1905002789 2.1553988662 17.508002473
687 4 0.0 26.559324 22.736156 25.012177
688 4 0.0 7.821677 11.644845 9.368823
689 4 0.0 7.821677 22.736156 9.368823
690 4 0.0 26.559324 11.644845 25.012177
691 4 0.0 26.559324 11.644845 9.368823
692 4 0.0 7.821677 22.736156 25.012177
693 4 0.0 7.821677 11.644845 25.012177
694 4 0.0 26.559324 22.736156 9.368823
695 4 0.0 22.736156 7.821677 9.368823
696 4 0.0 11.644845 26.559324 25.012177
697 4 0.0 22.736156 26.559324 25.012177
698 4 0.0 11.644845 7.821677 9.368823
699 4 0.0 11.644845 26.559324 9.368823
700 4 0.0 22.736156 7.821677 25.012177
701 4 0.0 11.644845 7.821677 25.012177
702 4 0.0 22.736156 26.559324 9.368823
703 4 0.0 7.821677 26.559324 5.545656
704 4 0.0 26.559324 7.821677 28.835344
705 4 0.0 26.559324 7.821677 5.545656
706 4 0.0 7.821677 26.559324 28.835344
707 4 0.0 26.559324 26.559324 28.835344
708 4 0.0 7.821677 7.821677 5.545656
709 4 0.0 7.821677 7.821677 28.835344
710 4 0.0 26.559324 26.559324 5.545656
711 4 0.0 26.559324 5.545656 7.821677
712 4 0.0 7.821677 28.835344 26.559324
713 4 0.0 7.821677 5.545656 26.559324
714 4 0.0 26.559324 28.835344 7.821677
715 4 0.0 26.559324 28.835344 26.559324
716 4 0.0 7.821677 5.545656 7.821677
717 4 0.0 7.821677 28.835344 7.821677
718 4 0.0 26.559324 5.545656 26.559324
719 4 0.0 22.736156 25.012177 26.559324
720 4 0.0 11.644845 9.368823 7.821677
721 4 0.0 22.736156 9.368823 7.821677
722 4 0.0 11.644845 25.012177 26.559324
723 4 0.0 11.644845 9.368823 26.559324
724 4 0.0 22.736156 25.012177 7.821677
725 4 0.0 11.644845 25.012177 7.821677
726 4 0.0 22.736156 9.368823 26.559324
727 4 0.0 7.821677 9.368823 22.736156
728 4 0.0 26.559324 25.012177 11.644845
729 4 0.0 26.559324 25.012177 22.736156
730 4 0.0 7.821677 9.368823 11.644845
731 4 0.0 26.559324 9.368823 11.644845
732 4 0.0 7.821677 25.012177 22.736156
733 4 0.0 7.821677 25.012177 11.644845
734 4 0.0 26.559324 9.368823 22.736156
735 4 0.0 9.368823 22.736156 7.821677
736 4 0.0 25.012177 11.644845 26.559324
737 4 0.0 25.012177 22.736156 26.559324
738 4 0.0 9.368823 11.644845 7.821677
739 4 0.0 9.368823 11.644845 26.559324
740 4 0.0 25.012177 22.736156 7.821677
741 4 0.0 25.012177 11.644845 7.821677
742 4 0.0 9.368823 22.736156 26.559324
743 4 0.0 5.545656 7.821677 26.559324
744 4 0.0 28.835344 26.559324 7.821677