# LAMMPS data file written by Ovito Basic 3.0.0-dev791
148 atoms
2 atom types
0.0 7.8392028809 xlo xhi
0.0 7.8392028809 ylo yhi
0.0 28.0463848114 zlo zhi

Atoms  # charge

1 1 0.0 0.0 0.0 27.169933319
2 1 0.0 0.0 0.0 23.664134979
3 1 0.0 0.0 0.0 20.158336639
4 1 0.0 0.0 0.0 16.652540207
5 1 0.0 4.703521252 1.567840457 27.169933319
6 1 0.0 4.703521252 1.567840457 23.664134979
7 1 0.0 4.703521252 1.567840457 20.158336639
8 1 0.0 4.703521252 1.567840457 16.652540207
9 1 0.0 6.271361828 4.703521252 27.169933319
10 1 0.0 6.271361828 4.703521252 23.664134979
11 1 0.0 6.271361828 4.703521252 20.158336639
12 1 0.0 6.271361828 4.703521252 16.652540207
13 1 0.0 1.567840457 3.135680914 27.169933319
14 1 0.0 1.567840457 3.135680914 23.664134979
15 1 0.0 1.567840457 3.135680914 20.158336639
16 1 0.0 1.567840457 3.135680914 16.652540207
17 1 0.0 3.135680914 6.271361828 27.169933319
18 1 0.0 3.135680914 6.271361828 23.664134979
19 1 0.0 3.135680914 6.271361828 20.158336639
20 1 0.0 3.135680914 6.271361828 16.652540207
21 1 0.0 0.783920228 1.567840457 25.417034149
22 1 0.0 0.783920228 1.567840457 21.911235809
23 1 0.0 0.783920228 1.567840457 18.405437469
24 1 0.0 0.783920228 1.567840457 14.899640083
25 1 0.0 5.487442017 3.135680914 25.417034149
26 1 0.0 5.487442017 3.135680914 21.911235809
27 1 0.0 5.487442017 3.135680914 18.405437469
28 1 0.0 5.487442017 3.135680914 14.899640083
29 1 0.0 7.055282593 6.271361828 25.417034149
30 1 0.0 7.055282593 6.271361828 21.911235809
31 1 0.0 7.055282593 6.271361828 18.405437469
32 1 0.0 7.055282593 6.271361828 14.899640083
33 1 0.0 2.351760626 4.703521252 25.417034149
34 1 0.0 2.351760626 4.703521252 21.911235809
35 1 0.0 2.351760626 4.703521252 18.405437469
36 1 0.0 2.351760626 4.703521252 14.899640083
37 1 0.0 3.919601202 0.0 25.417034149
38 1 0.0 3.919601202 0.0 21.911235809
39 1 0.0 3.919601202 0.0 18.405437469
40 1 0.0 3.919601202 0.0 14.899640083
41 1 0.0 1.567840457 7.055282116 25.417034149
42 1 0.0 1.567840457 7.055282116 21.911235809
43 1 0.0 1.567840457 7.055282116 18.405437469
44 1 0.0 1.567840457 7.055282116 14.899640083
45 1 0.0 6.271361828 0.783920407 25.417034149
46 1 0.0 6.271361828 0.783920407 21.911235809
47 1 0.0 6.271361828 0.783920407 18.405437469
48 1 0.0 6.271361828 0.783920407 14.899640083
49 1 0.0 0.0 3.919601202 25.417034149
50 1 0.0 0.0 3.919601202 21.911235809
51 1 0.0 0.0 3.919601202 18.405437469
52 1 0.0 0.0 3.919601202 14.899640083
53 1 0.0 3.135680914 2.351760149 25.417034149
54 1 0.0 3.135680914 2.351760149 21.911235809
55 1 0.0 3.135680914 2.351760149 18.405437469
56 1 0.0 3.135680914 2.351760149 14.899640083
57 1 0.0 4.703521252 5.487442017 25.417034149
58 1 0.0 4.703521252 5.487442017 21.911235809
59 1 0.0 4.703521252 5.487442017 18.405437469
60 1 0.0 4.703521252 5.487442017 14.899640083
61 1 0.0 2.351760626 0.783920228 27.169933319
62 1 0.0 2.351760626 0.783920228 23.664134979
63 1 0.0 2.351760626 0.783920228 20.158336639
64 1 0.0 2.351760626 0.783920228 16.652540207
65 1 0.0 7.055282593 2.351760626 27.169933319
66 1 0.0 7.055282593 2.351760626 23.664134979
67 1 0.0 7.055282593 2.351760626 20.158336639
68 1 0.0 7.055282593 2.351760626 16.652540207
69 1 0.0 0.783920407 5.487442017 27.169933319
70 1 0.0 0.783920407 5.487442017 23.664134979
71 1 0.0 0.783920407 5.487442017 20.158336639
72 1 0.0 0.783920407 5.487442017 16.652540207
73 1 0.0 3.919601202 3.919601202 27.169933319
74 1 0.0 3.919601202 3.919601202 23.664134979
75 1 0.0 3.919601202 3.919601202 20.158336639
76 1 0.0 3.919601202 3.919601202 16.652540207
77 1 0.0 5.487442017 7.055282593 27.169933319
78 1 0.0 5.487442017 7.055282593 23.664134979
79 1 0.0 5.487442017 7.055282593 20.158336639
80 1 0.0 5.487442017 7.055282593 16.652540207
81 2 0.0 0.144826859 0.144826859 0.876449466
82 2 0.0 7.432291508 7.432291508 0.876449466
83 2 0.0 0.144826859 0.144826859 4.382246971
84 2 0.0 7.432291508 7.432291508 4.382246971
85 2 0.0 0.144826859 0.144826859 7.888044834
86 2 0.0 7.432291508 7.432291508 7.888044834
87 2 0.0 0.144826859 0.144826859 11.393842697
88 2 0.0 7.432291508 7.432291508 11.393842697
89 2 0.0 0.006892418 3.926493406 0.876449466
90 2 0.0 0.006892418 3.926493406 4.382246971
91 2 0.0 0.006892418 3.926493406 7.888044834
92 2 0.0 0.006892418 3.926493406 11.393842697
93 2 0.0 3.926493406 0.006892418 0.876449466
94 2 0.0 3.926493406 0.006892418 4.382246971
95 2 0.0 3.926493406 0.006892418 7.888044834
96 2 0.0 3.926493406 0.006892418 11.393842697
97 2 0.0 3.926493406 3.926493406 0.876449466
98 2 0.0 3.926493406 3.926493406 4.382246971
99 2 0.0 3.926493406 3.926493406 7.888044834
100 2 0.0 3.926493406 3.926493406 11.393842697
101 2 0.0 0.006892418 2.173594475 2.629348278
102 2 0.0 0.006892418 2.173594475 6.135146141
103 2 0.0 0.006892418 2.173594475 9.640943527
104 2 0.0 0.006892418 2.173594475 13.146741867
105 2 0.0 0.006892418 5.679392338 2.629348278
106 2 0.0 0.006892418 5.679392338 6.135146141
107 2 0.0 0.006892418 5.679392338 9.640943527
108 2 0.0 0.006892418 5.679392338 13.146741867
109 2 0.0 3.926493406 2.173594475 2.629348278
110 2 0.0 3.926493406 2.173594475 6.135146141
111 2 0.0 3.926493406 2.173594475 9.640943527
112 2 0.0 3.926493406 2.173594475 13.146741867
113 2 0.0 3.926493406 5.679392338 2.629348278
114 2 0.0 3.926493406 5.679392338 6.135146141
115 2 0.0 3.926493406 5.679392338 9.640943527
116 2 0.0 3.926493406 5.679392338 13.146741867
117 2 0.0 2.173594475 0.006892418 2.629348278
118 2 0.0 2.173594475 0.006892418 6.135146141
119 2 0.0 2.173594475 0.006892418 9.640943527
120 2 0.0 2.173594475 0.006892418 13.146741867
121 2 0.0 2.173594475 3.926493406 2.629348278
122 2 0.0 2.173594475 3.926493406 6.135146141
123 2 0.0 2.173594475 3.926493406 9.640943527
124 2 0.0 2.173594475 3.926493406 13.146741867
125 2 0.0 5.679392338 0.006892418 2.629348278
126 2 0.0 5.679392338 0.006892418 6.135146141
127 2 0.0 5.679392338 0.006892418 9.640943527
128 2 0.0 5.679392338 0.006892418 13.146741867
129 2 0.0 5.679392338 3.926493406 2.629348278
130 2 0.0 5.679392338 3.926493406 6.135146141
131 2 0.0 5.679392338 3.926493406 9.640943527
132 2 0.0 5.679392338 3.926493406 13.146741867
133 2 0.0 2.173594475 2.173594475 0.876449466
134 2 0.0 2.173594475 2.173594475 4.382246971
135 2 0.0 2.173594475 2.173594475 7.888044834
136 2 0.0 2.173594475 2.173594475 11.393842697
137 2 0.0 2.173594475 5.679392338 0.876449466
138 2 0.0 2.173594475 5.679392338 4.382246971
139 2 0.0 2.173594475 5.679392338 7.888044834
140 2 0.0 2.173594475 5.679392338 11.393842697
141 2 0.0 5.679392338 2.173594475 0.876449466
142 2 0.0 5.679392338 2.173594475 4.382246971
143 2 0.0 5.679392338 2.173594475 7.888044834
144 2 0.0 5.679392338 2.173594475 11.393842697
145 2 0.0 5.679392338 5.679392338 0.876449466
146 2 0.0 5.679392338 5.679392338 4.382246971
147 2 0.0 5.679392338 5.679392338 7.888044834
148 2 0.0 5.679392338 5.679392338 11.393842697
