# LAMMPS data file written by Ovito Basic 3.0.0-dev791
304 atoms
2 atom types
0.0 11.0863075256 xlo xhi
0.0 11.0863075256 ylo yhi
0.0 28.0463848114 zlo zhi

Atoms  # charge

1 1 0.0 0.0 0.0 27.169933319
2 1 0.0 0.0 0.0 23.664134979
3 1 0.0 0.0 0.0 20.158336639
4 1 0.0 0.0 0.0 16.652540207
5 1 0.0 7.7604146 1.108630657 27.169933319
6 1 0.0 7.7604146 1.108630657 23.664134979
7 1 0.0 7.7604146 1.108630657 20.158336639
8 1 0.0 7.7604146 1.108630657 16.652540207
9 1 0.0 8.869045258 4.434522629 27.169933319
10 1 0.0 8.869045258 4.434522629 23.664134979
11 1 0.0 8.869045258 4.434522629 20.158336639
12 1 0.0 8.869045258 4.434522629 16.652540207
13 1 0.0 9.977675438 7.7604146 27.169933319
14 1 0.0 9.977675438 7.7604146 23.664134979
15 1 0.0 9.977675438 7.7604146 20.158336639
16 1 0.0 9.977675438 7.7604146 16.652540207
17 1 0.0 1.108630657 3.325891972 27.169933319
18 1 0.0 1.108630657 3.325891972 23.664134979
19 1 0.0 1.108630657 3.325891972 20.158336639
20 1 0.0 1.108630657 3.325891972 16.652540207
21 1 0.0 2.217261314 6.651783943 27.169933319
22 1 0.0 2.217261314 6.651783943 23.664134979
23 1 0.0 2.217261314 6.651783943 20.158336639
24 1 0.0 2.217261314 6.651783943 16.652540207
25 1 0.0 3.325891972 9.977675438 27.169933319
26 1 0.0 3.325891972 9.977675438 23.664134979
27 1 0.0 3.325891972 9.977675438 20.158336639
28 1 0.0 3.325891972 9.977675438 16.652540207
29 1 0.0 4.434522629 2.217261314 27.169933319
30 1 0.0 4.434522629 2.217261314 23.664134979
31 1 0.0 4.434522629 2.217261314 20.158336639
32 1 0.0 4.434522629 2.217261314 16.652540207
33 1 0.0 5.543153286 5.543153286 27.169933319
34 1 0.0 5.543153286 5.543153286 23.664134979
35 1 0.0 5.543153286 5.543153286 20.158336639
36 1 0.0 5.543153286 5.543153286 16.652540207
37 1 0.0 6.651783943 8.869045258 27.169933319
38 1 0.0 6.651783943 8.869045258 23.664134979
39 1 0.0 6.651783943 8.869045258 20.158336639
40 1 0.0 6.651783943 8.869045258 16.652540207
41 1 0.0 0.554315329 1.662945986 25.417034149
42 1 0.0 0.554315329 1.662945986 21.911235809
43 1 0.0 0.554315329 1.662945986 18.405437469
44 1 0.0 0.554315329 1.662945986 14.899640083
45 1 0.0 8.314729691 2.771576643 25.417034149
46 1 0.0 8.314729691 2.771576643 21.911235809
47 1 0.0 8.314729691 2.771576643 18.405437469
48 1 0.0 8.314729691 2.771576643 14.899640083
49 1 0.0 9.423360825 6.097468376 25.417034149
50 1 0.0 9.423360825 6.097468376 21.911235809
51 1 0.0 9.423360825 6.097468376 18.405437469
52 1 0.0 9.423360825 6.097468376 14.899640083
53 1 0.0 10.531991005 9.423360825 25.417034149
54 1 0.0 10.531991005 9.423360825 21.911235809
55 1 0.0 10.531991005 9.423360825 18.405437469
56 1 0.0 10.531991005 9.423360825 14.899640083
57 1 0.0 1.662945986 4.988838196 25.417034149
58 1 0.0 1.662945986 4.988838196 21.911235809
59 1 0.0 1.662945986 4.988838196 18.405437469
60 1 0.0 1.662945986 4.988838196 14.899640083
61 1 0.0 2.771576643 8.314729691 25.417034149
62 1 0.0 2.771576643 8.314729691 21.911235809
63 1 0.0 2.771576643 8.314729691 18.405437469
64 1 0.0 2.771576643 8.314729691 14.899640083
65 1 0.0 3.880207539 0.554314792 25.417034149
66 1 0.0 3.880207539 0.554314792 21.911235809
67 1 0.0 3.880207539 0.554314792 18.405437469
68 1 0.0 3.880207539 0.554314792 14.899640083
69 1 0.0 4.988838196 3.880207539 25.417034149
70 1 0.0 4.988838196 3.880207539 21.911235809
71 1 0.0 4.988838196 3.880207539 18.405437469
72 1 0.0 4.988838196 3.880207539 14.899640083
73 1 0.0 6.097468376 7.206099033 25.417034149
74 1 0.0 6.097468376 7.206099033 21.911235809
75 1 0.0 6.097468376 7.206099033 18.405437469
76 1 0.0 6.097468376 7.206099033 14.899640083
77 1 0.0 7.20609951 10.531991959 25.417034149
78 1 0.0 7.20609951 10.531991959 21.911235809
79 1 0.0 7.20609951 10.531991959 18.405437469
80 1 0.0 7.20609951 10.531991959 14.899640083
81 1 0.0 1.662945986 10.531991005 25.417034149
82 1 0.0 1.662945986 10.531991005 21.911235809
83 1 0.0 1.662945986 10.531991005 18.405437469
84 1 0.0 1.662945986 10.531991005 14.899640083
85 1 0.0 9.423360825 0.554314792 25.417034149
86 1 0.0 9.423360825 0.554314792 21.911235809
87 1 0.0 9.423360825 0.554314792 18.405437469
88 1 0.0 9.423360825 0.554314792 14.899640083
89 1 0.0 10.531991959 3.880207539 25.417034149
90 1 0.0 10.531991959 3.880207539 21.911235809
91 1 0.0 10.531991959 3.880207539 18.405437469
92 1 0.0 10.531991959 3.880207539 14.899640083
93 1 0.0 0.554314792 7.206099033 25.417034149
94 1 0.0 0.554314792 7.206099033 21.911235809
95 1 0.0 0.554314792 7.206099033 18.405437469
96 1 0.0 0.554314792 7.206099033 14.899640083
97 1 0.0 2.771576643 2.771576643 25.417034149
98 1 0.0 2.771576643 2.771576643 21.911235809
99 1 0.0 2.771576643 2.771576643 18.405437469
100 1 0.0 2.771576643 2.771576643 14.899640083
101 1 0.0 3.880207539 6.097467899 25.417034149
102 1 0.0 3.880207539 6.097467899 21.911235809
103 1 0.0 3.880207539 6.097467899 18.405437469
104 1 0.0 3.880207539 6.097467899 14.899640083
105 1 0.0 4.988838196 9.423358917 25.417034149
106 1 0.0 4.988838196 9.423358917 21.911235809
107 1 0.0 4.988838196 9.423358917 18.405437469
108 1 0.0 4.988838196 9.423358917 14.899640083
109 1 0.0 6.097468376 1.662945747 25.417034149
110 1 0.0 6.097468376 1.662945747 21.911235809
111 1 0.0 6.097468376 1.662945747 18.405437469
112 1 0.0 6.097468376 1.662945747 14.899640083
113 1 0.0 7.206099033 4.988839149 25.417034149
114 1 0.0 7.206099033 4.988839149 21.911235809
115 1 0.0 7.206099033 4.988839149 18.405437469
116 1 0.0 7.206099033 4.988839149 14.899640083
117 1 0.0 8.314729691 8.314729691 25.417034149
118 1 0.0 8.314729691 8.314729691 21.911235809
119 1 0.0 8.314729691 8.314729691 18.405437469
120 1 0.0 8.314729691 8.314729691 14.899640083
121 1 0.0 2.217261314 1.108630657 27.169933319
122 1 0.0 2.217261314 1.108630657 23.664134979
123 1 0.0 2.217261314 1.108630657 20.158336639
124 1 0.0 2.217261314 1.108630657 16.652540207
125 1 0.0 9.977675438 2.217261314 27.169933319
126 1 0.0 9.977675438 2.217261314 23.664134979
127 1 0.0 9.977675438 2.217261314 20.158336639
128 1 0.0 9.977675438 2.217261314 16.652540207
129 1 0.0 0.0 5.543153286 27.169933319
130 1 0.0 0.0 5.543153286 23.664134979
131 1 0.0 0.0 5.543153286 20.158336639
132 1 0.0 0.0 5.543153286 16.652540207
133 1 0.0 1.108630896 8.869045258 27.169933319
134 1 0.0 1.108630896 8.869045258 23.664134979
135 1 0.0 1.108630896 8.869045258 20.158336639
136 1 0.0 1.108630896 8.869045258 16.652540207
137 1 0.0 3.325891972 4.434522629 27.169933319
138 1 0.0 3.325891972 4.434522629 23.664134979
139 1 0.0 3.325891972 4.434522629 20.158336639
140 1 0.0 3.325891972 4.434522629 16.652540207
141 1 0.0 4.434522629 7.760415077 27.169933319
142 1 0.0 4.434522629 7.760415077 23.664134979
143 1 0.0 4.434522629 7.760415077 20.158336639
144 1 0.0 4.434522629 7.760415077 16.652540207
145 1 0.0 5.543153286 0.0 27.169933319
146 1 0.0 5.543153286 0.0 23.664134979
147 1 0.0 5.543153286 0.0 20.158336639
148 1 0.0 5.543153286 0.0 16.652540207
149 1 0.0 6.651783943 3.325891972 27.169933319
150 1 0.0 6.651783943 3.325891972 23.664134979
151 1 0.0 6.651783943 3.325891972 20.158336639
152 1 0.0 6.651783943 3.325891972 16.652540207
153 1 0.0 7.7604146 6.651783943 27.169933319
154 1 0.0 7.7604146 6.651783943 23.664134979
155 1 0.0 7.7604146 6.651783943 20.158336639
156 1 0.0 7.7604146 6.651783943 16.652540207
157 1 0.0 8.869045258 9.977676392 27.169933319
158 1 0.0 8.869045258 9.977676392 23.664134979
159 1 0.0 8.869045258 9.977676392 20.158336639
160 1 0.0 8.869045258 9.977676392 16.652540207
161 2 0.0 11.085820198 11.085820198 0.876449466
162 2 0.0 11.085820198 11.085820198 4.382246971
163 2 0.0 11.085820198 11.085820198 7.888044834
164 2 0.0 11.085820198 11.085820198 11.393842697
165 2 0.0 11.085820198 3.789767504 0.876449466
166 2 0.0 11.085820198 3.789767504 4.382246971
167 2 0.0 11.085820198 3.789767504 7.888044834
168 2 0.0 11.085820198 3.789767504 11.393842697
169 2 0.0 11.085820198 7.295564651 0.876449466
170 2 0.0 11.085820198 7.295564651 4.382246971
171 2 0.0 11.085820198 7.295564651 7.888044834
172 2 0.0 11.085820198 7.295564651 11.393842697
173 2 0.0 3.789767504 11.085820198 0.876449466
174 2 0.0 3.789767504 11.085820198 4.382246971
175 2 0.0 3.789767504 11.085820198 7.888044834
176 2 0.0 3.789767504 11.085820198 11.393842697
177 2 0.0 3.789767504 3.789767504 0.876449466
178 2 0.0 3.789767504 3.789767504 4.382246971
179 2 0.0 3.789767504 3.789767504 7.888044834
180 2 0.0 3.789767504 3.789767504 11.393842697
181 2 0.0 3.789767504 7.295564651 0.876449466
182 2 0.0 3.789767504 7.295564651 4.382246971
183 2 0.0 3.789767504 7.295564651 7.888044834
184 2 0.0 3.789767504 7.295564651 11.393842697
185 2 0.0 7.295564651 11.085820198 0.876449466
186 2 0.0 7.295564651 11.085820198 4.382246971
187 2 0.0 7.295564651 11.085820198 7.888044834
188 2 0.0 7.295564651 11.085820198 11.393842697
189 2 0.0 7.295564651 3.789767504 0.876449466
190 2 0.0 7.295564651 3.789767504 4.382246971
191 2 0.0 7.295564651 3.789767504 7.888044834
192 2 0.0 7.295564651 3.789767504 11.393842697
193 2 0.0 7.295564651 7.295564651 0.876449466
194 2 0.0 7.295564651 7.295564651 4.382246971
195 2 0.0 7.295564651 7.295564651 7.888044834
196 2 0.0 7.295564651 7.295564651 11.393842697
197 2 0.0 11.085820198 2.036868334 2.629348278
198 2 0.0 11.085820198 2.036868334 6.135146141
199 2 0.0 11.085820198 2.036868334 9.640943527
200 2 0.0 11.085820198 2.036868334 13.146741867
201 2 0.0 11.085820198 5.542665958 2.629348278
202 2 0.0 11.085820198 5.542665958 6.135146141
203 2 0.0 11.085820198 5.542665958 9.640943527
204 2 0.0 11.085820198 5.542665958 13.146741867
205 2 0.0 11.085820198 9.048465729 2.629348278
206 2 0.0 11.085820198 9.048465729 6.135146141
207 2 0.0 11.085820198 9.048465729 9.640943527
208 2 0.0 11.085820198 9.048465729 13.146741867
209 2 0.0 3.789767504 2.036868334 2.629348278
210 2 0.0 3.789767504 2.036868334 6.135146141
211 2 0.0 3.789767504 2.036868334 9.640943527
212 2 0.0 3.789767504 2.036868334 13.146741867
213 2 0.0 3.789767504 5.542665958 2.629348278
214 2 0.0 3.789767504 5.542665958 6.135146141
215 2 0.0 3.789767504 5.542665958 9.640943527
216 2 0.0 3.789767504 5.542665958 13.146741867
217 2 0.0 3.789767504 9.048465729 2.629348278
218 2 0.0 3.789767504 9.048465729 6.135146141
219 2 0.0 3.789767504 9.048465729 9.640943527
220 2 0.0 3.789767504 9.048465729 13.146741867
221 2 0.0 7.295564651 2.036868334 2.629348278
222 2 0.0 7.295564651 2.036868334 6.135146141
223 2 0.0 7.295564651 2.036868334 9.640943527
224 2 0.0 7.295564651 2.036868334 13.146741867
225 2 0.0 7.295564651 5.542665958 2.629348278
226 2 0.0 7.295564651 5.542665958 6.135146141
227 2 0.0 7.295564651 5.542665958 9.640943527
228 2 0.0 7.295564651 5.542665958 13.146741867
229 2 0.0 7.295564651 9.048465729 2.629348278
230 2 0.0 7.295564651 9.048465729 6.135146141
231 2 0.0 7.295564651 9.048465729 9.640943527
232 2 0.0 7.295564651 9.048465729 13.146741867
233 2 0.0 2.036868334 11.085820198 2.629348278
234 2 0.0 2.036868334 11.085820198 6.135146141
235 2 0.0 2.036868334 11.085820198 9.640943527
236 2 0.0 2.036868334 11.085820198 13.146741867
237 2 0.0 2.036868334 3.789767504 2.629348278
238 2 0.0 2.036868334 3.789767504 6.135146141
239 2 0.0 2.036868334 3.789767504 9.640943527
240 2 0.0 2.036868334 3.789767504 13.146741867
241 2 0.0 2.036868334 7.295564651 2.629348278
242 2 0.0 2.036868334 7.295564651 6.135146141
243 2 0.0 2.036868334 7.295564651 9.640943527
244 2 0.0 2.036868334 7.295564651 13.146741867
245 2 0.0 5.542665958 11.085820198 2.629348278
246 2 0.0 5.542665958 11.085820198 6.135146141
247 2 0.0 5.542665958 11.085820198 9.640943527
248 2 0.0 5.542665958 11.085820198 13.146741867
249 2 0.0 5.542665958 3.789767504 2.629348278
250 2 0.0 5.542665958 3.789767504 6.135146141
251 2 0.0 5.542665958 3.789767504 9.640943527
252 2 0.0 5.542665958 3.789767504 13.146741867
253 2 0.0 5.542665958 7.295564651 2.629348278
254 2 0.0 5.542665958 7.295564651 6.135146141
255 2 0.0 5.542665958 7.295564651 9.640943527
256 2 0.0 5.542665958 7.295564651 13.146741867
257 2 0.0 9.048465729 11.085820198 2.629348278
258 2 0.0 9.048465729 11.085820198 6.135146141
259 2 0.0 9.048465729 11.085820198 9.640943527
260 2 0.0 9.048465729 11.085820198 13.146741867
261 2 0.0 9.048465729 3.789767504 2.629348278
262 2 0.0 9.048465729 3.789767504 6.135146141
263 2 0.0 9.048465729 3.789767504 9.640943527
264 2 0.0 9.048465729 3.789767504 13.146741867
265 2 0.0 9.048465729 7.295564651 2.629348278
266 2 0.0 9.048465729 7.295564651 6.135146141
267 2 0.0 9.048465729 7.295564651 9.640943527
268 2 0.0 9.048465729 7.295564651 13.146741867
269 2 0.0 2.036868334 2.036868334 0.876449466
270 2 0.0 2.036868334 2.036868334 4.382246971
271 2 0.0 2.036868334 2.036868334 7.888044834
272 2 0.0 2.036868334 2.036868334 11.393842697
273 2 0.0 2.036868334 5.542665958 0.876449466
274 2 0.0 2.036868334 5.542665958 4.382246971
275 2 0.0 2.036868334 5.542665958 7.888044834
276 2 0.0 2.036868334 5.542665958 11.393842697
277 2 0.0 2.036868334 9.048465729 0.876449466
278 2 0.0 2.036868334 9.048465729 4.382246971
279 2 0.0 2.036868334 9.048465729 7.888044834
280 2 0.0 2.036868334 9.048465729 11.393842697
281 2 0.0 5.542665958 2.036868334 0.876449466
282 2 0.0 5.542665958 2.036868334 4.382246971
283 2 0.0 5.542665958 2.036868334 7.888044834
284 2 0.0 5.542665958 2.036868334 11.393842697
285 2 0.0 5.542665958 5.542665958 0.876449466
286 2 0.0 5.542665958 5.542665958 4.382246971
287 2 0.0 5.542665958 5.542665958 7.888044834
288 2 0.0 5.542665958 5.542665958 11.393842697
289 2 0.0 5.542665958 9.048465729 0.876449466
290 2 0.0 5.542665958 9.048465729 4.382246971
291 2 0.0 5.542665958 9.048465729 7.888044834
292 2 0.0 5.542665958 9.048465729 11.393842697
293 2 0.0 9.048465729 2.036868334 0.876449466
294 2 0.0 9.048465729 2.036868334 4.382246971
295 2 0.0 9.048465729 2.036868334 7.888044834
296 2 0.0 9.048465729 2.036868334 11.393842697
297 2 0.0 9.048465729 5.542665958 0.876449466
298 2 0.0 9.048465729 5.542665958 4.382246971
299 2 0.0 9.048465729 5.542665958 7.888044834
300 2 0.0 9.048465729 5.542665958 11.393842697
301 2 0.0 9.048465729 9.048465729 0.876449466
302 2 0.0 9.048465729 9.048465729 4.382246971
303 2 0.0 9.048465729 9.048465729 7.888044834
304 2 0.0 9.048465729 9.048465729 11.393842697
