# LAMMPS data file written by Ovito Basic 3.0.0-dev791
1584 atoms
2 atom types
0.0 24.7897357941 xlo xhi
0.0 24.7897357941 ylo yhi
0.0 28.0463848114 zlo zhi

Atoms  # charge

1 1 0.0 0.0 0.0 27.169931412
2 1 0.0 0.0 0.0 23.664133072
3 1 0.0 0.0 0.0 20.158336639
4 1 0.0 0.0 0.0 16.6525383
5 1 0.0 21.319169998 0.495794624 27.169931412
6 1 0.0 21.319169998 0.495794624 23.664133072
7 1 0.0 21.319169998 0.495794624 20.158336639
8 1 0.0 21.319169998 0.495794624 16.6525383
9 1 0.0 21.814964294 3.966356993 27.169931412
10 1 0.0 21.814964294 3.966356993 23.664133072
11 1 0.0 21.814964294 3.966356993 20.158336639
12 1 0.0 21.814964294 3.966356993 16.6525383
13 1 0.0 22.310760498 7.436919689 27.169931412
14 1 0.0 22.310760498 7.436919689 23.664133072
15 1 0.0 22.310760498 7.436919689 20.158336639
16 1 0.0 22.310760498 7.436919689 16.6525383
17 1 0.0 22.806554794 10.907482147 27.169931412
18 1 0.0 22.806554794 10.907482147 23.664133072
19 1 0.0 22.806554794 10.907482147 20.158336639
20 1 0.0 22.806554794 10.907482147 16.6525383
21 1 0.0 23.302349091 14.378043175 27.169931412
22 1 0.0 23.302349091 14.378043175 23.664133072
23 1 0.0 23.302349091 14.378043175 20.158336639
24 1 0.0 23.302349091 14.378043175 16.6525383
25 1 0.0 23.798143387 17.848608017 27.169931412
26 1 0.0 23.798143387 17.848608017 23.664133072
27 1 0.0 23.798143387 17.848608017 20.158336639
28 1 0.0 23.798143387 17.848608017 16.6525383
29 1 0.0 24.293937683 21.319169998 27.169931412
30 1 0.0 24.293937683 21.319169998 23.664133072
31 1 0.0 24.293937683 21.319169998 20.158336639
32 1 0.0 24.293937683 21.319169998 16.6525383
33 1 0.0 0.495794624 3.47056222 27.169931412
34 1 0.0 0.495794624 3.47056222 23.664133072
35 1 0.0 0.495794624 3.47056222 20.158336639
36 1 0.0 0.495794624 3.47056222 16.6525383
37 1 0.0 0.991589248 6.941124439 27.169931412
38 1 0.0 0.991589248 6.941124439 23.664133072
39 1 0.0 0.991589248 6.941124439 20.158336639
40 1 0.0 0.991589248 6.941124439 16.6525383
41 1 0.0 1.487383962 10.411686897 27.169931412
42 1 0.0 1.487383962 10.411686897 23.664133072
43 1 0.0 1.487383962 10.411686897 20.158336639
44 1 0.0 1.487383962 10.411686897 16.6525383
45 1 0.0 1.983178496 13.882248878 27.169931412
46 1 0.0 1.983178496 13.882248878 23.664133072
47 1 0.0 1.983178496 13.882248878 20.158336639
48 1 0.0 1.983178496 13.882248878 16.6525383
49 1 0.0 2.47897315 17.352813721 27.169931412
50 1 0.0 2.47897315 17.352813721 23.664133072
51 1 0.0 2.47897315 17.352813721 20.158336639
52 1 0.0 2.47897315 17.352813721 16.6525383
53 1 0.0 2.974767923 20.823373795 27.169931412
54 1 0.0 2.974767923 20.823373795 23.664133072
55 1 0.0 2.974767923 20.823373795 20.158336639
56 1 0.0 2.974767923 20.823373795 16.6525383
57 1 0.0 3.47056222 24.293937683 27.169931412
58 1 0.0 3.47056222 24.293937683 23.664133072
59 1 0.0 3.47056222 24.293937683 20.158336639
60 1 0.0 3.47056222 24.293937683 16.6525383
61 1 0.0 3.966356993 2.974767923 27.169931412
62 1 0.0 3.966356993 2.974767923 23.664133072
63 1 0.0 3.966356993 2.974767923 20.158336639
64 1 0.0 3.966356993 2.974767923 16.6525383
65 1 0.0 4.462152004 6.445329666 27.169931412
66 1 0.0 4.462152004 6.445329666 23.664133072
67 1 0.0 4.462152004 6.445329666 20.158336639
68 1 0.0 4.462152004 6.445329666 16.6525383
69 1 0.0 4.957946301 9.915892601 27.169931412
70 1 0.0 4.957946301 9.915892601 23.664133072
71 1 0.0 4.957946301 9.915892601 20.158336639
72 1 0.0 4.957946301 9.915892601 16.6525383
73 1 0.0 5.453741074 13.386454582 27.169931412
74 1 0.0 5.453741074 13.386454582 23.664133072
75 1 0.0 5.453741074 13.386454582 20.158336639
76 1 0.0 5.453741074 13.386454582 16.6525383
77 1 0.0 5.949535847 16.857019424 27.169931412
78 1 0.0 5.949535847 16.857019424 23.664133072
79 1 0.0 5.949535847 16.857019424 20.158336639
80 1 0.0 5.949535847 16.857019424 16.6525383
81 1 0.0 6.445329666 20.327579498 27.169931412
82 1 0.0 6.445329666 20.327579498 23.664133072
83 1 0.0 6.445329666 20.327579498 20.158336639
84 1 0.0 6.445329666 20.327579498 16.6525383
85 1 0.0 6.941124439 23.798143387 27.169931412
86 1 0.0 6.941124439 23.798143387 23.664133072
87 1 0.0 6.941124439 23.798143387 20.158336639
88 1 0.0 6.941124439 23.798143387 16.6525383
89 1 0.0 7.436919689 2.47897315 27.169931412
90 1 0.0 7.436919689 2.47897315 23.664133072
91 1 0.0 7.436919689 2.47897315 20.158336639
92 1 0.0 7.436919689 2.47897315 16.6525383
93 1 0.0 7.932713985 5.949535847 27.169931412
94 1 0.0 7.932713985 5.949535847 23.664133072
95 1 0.0 7.932713985 5.949535847 20.158336639
96 1 0.0 7.932713985 5.949535847 16.6525383
97 1 0.0 8.428509712 9.420098305 27.169931412
98 1 0.0 8.428509712 9.420098305 23.664133072
99 1 0.0 8.428509712 9.420098305 20.158336639
100 1 0.0 8.428509712 9.420098305 16.6525383
101 1 0.0 8.924304008 12.890659332 27.169931412
102 1 0.0 8.924304008 12.890659332 23.664133072
103 1 0.0 8.924304008 12.890659332 20.158336639
104 1 0.0 8.924304008 12.890659332 16.6525383
105 1 0.0 9.420098305 16.361225128 27.169931412
106 1 0.0 9.420098305 16.361225128 23.664133072
107 1 0.0 9.420098305 16.361225128 20.158336639
108 1 0.0 9.420098305 16.361225128 16.6525383
109 1 0.0 9.915892601 19.831785202 27.169931412
110 1 0.0 9.915892601 19.831785202 23.664133072
111 1 0.0 9.915892601 19.831785202 20.158336639
112 1 0.0 9.915892601 19.831785202 16.6525383
113 1 0.0 10.411686897 23.302349091 27.169931412
114 1 0.0 10.411686897 23.302349091 23.664133072
115 1 0.0 10.411686897 23.302349091 20.158336639
116 1 0.0 10.411686897 23.302349091 16.6525383
117 1 0.0 10.907482147 1.983178496 27.169931412
118 1 0.0 10.907482147 1.983178496 23.664133072
119 1 0.0 10.907482147 1.983178496 20.158336639
120 1 0.0 10.907482147 1.983178496 16.6525383
121 1 0.0 11.403277397 5.453741074 27.169931412
122 1 0.0 11.403277397 5.453741074 23.664133072
123 1 0.0 11.403277397 5.453741074 20.158336639
124 1 0.0 11.403277397 5.453741074 16.6525383
125 1 0.0 11.899071693 8.924304008 27.169931412
126 1 0.0 11.899071693 8.924304008 23.664133072
127 1 0.0 11.899071693 8.924304008 20.158336639
128 1 0.0 11.899071693 8.924304008 16.6525383
129 1 0.0 12.39486599 12.39486599 27.169931412
130 1 0.0 12.39486599 12.39486599 23.664133072
131 1 0.0 12.39486599 12.39486599 20.158336639
132 1 0.0 12.39486599 12.39486599 16.6525383
133 1 0.0 12.890659332 15.865427971 27.169931412
134 1 0.0 12.890659332 15.865427971 23.664133072
135 1 0.0 12.890659332 15.865427971 20.158336639
136 1 0.0 12.890659332 15.865427971 16.6525383
137 1 0.0 13.386454582 19.335990906 27.169931412
138 1 0.0 13.386454582 19.335990906 23.664133072
139 1 0.0 13.386454582 19.335990906 20.158336639
140 1 0.0 13.386454582 19.335990906 16.6525383
141 1 0.0 13.882248878 22.806554794 27.169931412
142 1 0.0 13.882248878 22.806554794 23.664133072
143 1 0.0 13.882248878 22.806554794 20.158336639
144 1 0.0 13.882248878 22.806554794 16.6525383
145 1 0.0 14.378043175 1.487383962 27.169931412
146 1 0.0 14.378043175 1.487383962 23.664133072
147 1 0.0 14.378043175 1.487383962 20.158336639
148 1 0.0 14.378043175 1.487383962 16.6525383
149 1 0.0 14.873839378 4.957946301 27.169931412
150 1 0.0 14.873839378 4.957946301 23.664133072
151 1 0.0 14.873839378 4.957946301 20.158336639
152 1 0.0 14.873839378 4.957946301 16.6525383
153 1 0.0 15.369633675 8.428509712 27.169931412
154 1 0.0 15.369633675 8.428509712 23.664133072
155 1 0.0 15.369633675 8.428509712 20.158336639
156 1 0.0 15.369633675 8.428509712 16.6525383
157 1 0.0 15.865427971 11.899071693 27.169931412
158 1 0.0 15.865427971 11.899071693 23.664133072
159 1 0.0 15.865427971 11.899071693 20.158336639
160 1 0.0 15.865427971 11.899071693 16.6525383
161 1 0.0 16.361225128 15.369633675 27.169931412
162 1 0.0 16.361225128 15.369633675 23.664133072
163 1 0.0 16.361225128 15.369633675 20.158336639
164 1 0.0 16.361225128 15.369633675 16.6525383
165 1 0.0 16.857019424 18.840196609 27.169931412
166 1 0.0 16.857019424 18.840196609 23.664133072
167 1 0.0 16.857019424 18.840196609 20.158336639
168 1 0.0 16.857019424 18.840196609 16.6525383
169 1 0.0 17.352813721 22.310760498 27.169931412
170 1 0.0 17.352813721 22.310760498 23.664133072
171 1 0.0 17.352813721 22.310760498 20.158336639
172 1 0.0 17.352813721 22.310760498 16.6525383
173 1 0.0 17.848608017 0.991589248 27.169931412
174 1 0.0 17.848608017 0.991589248 23.664133072
175 1 0.0 17.848608017 0.991589248 20.158336639
176 1 0.0 17.848608017 0.991589248 16.6525383
177 1 0.0 18.344402313 4.462152004 27.169931412
178 1 0.0 18.344402313 4.462152004 23.664133072
179 1 0.0 18.344402313 4.462152004 20.158336639
180 1 0.0 18.344402313 4.462152004 16.6525383
181 1 0.0 18.840196609 7.932713985 27.169931412
182 1 0.0 18.840196609 7.932713985 23.664133072
183 1 0.0 18.840196609 7.932713985 20.158336639
184 1 0.0 18.840196609 7.932713985 16.6525383
185 1 0.0 19.335990906 11.403277397 27.169931412
186 1 0.0 19.335990906 11.403277397 23.664133072
187 1 0.0 19.335990906 11.403277397 20.158336639
188 1 0.0 19.335990906 11.403277397 16.6525383
189 1 0.0 19.831785202 14.873839378 27.169931412
190 1 0.0 19.831785202 14.873839378 23.664133072
191 1 0.0 19.831785202 14.873839378 20.158336639
192 1 0.0 19.831785202 14.873839378 16.6525383
193 1 0.0 20.327579498 18.344402313 27.169931412
194 1 0.0 20.327579498 18.344402313 23.664133072
195 1 0.0 20.327579498 18.344402313 20.158336639
196 1 0.0 20.327579498 18.344402313 16.6525383
197 1 0.0 20.823373795 21.814964294 27.169931412
198 1 0.0 20.823373795 21.814964294 23.664133072
199 1 0.0 20.823373795 21.814964294 20.158336639
200 1 0.0 20.823373795 21.814964294 16.6525383
201 1 0.0 0.247897312 1.73528111 25.417032242
202 1 0.0 0.247897312 1.73528111 21.911233902
203 1 0.0 0.247897312 1.73528111 18.405437469
204 1 0.0 0.247897312 1.73528111 14.899638176
205 1 0.0 21.5670681 2.231076002 25.417032242
206 1 0.0 21.5670681 2.231076002 21.911233902
207 1 0.0 21.5670681 2.231076002 18.405437469
208 1 0.0 21.5670681 2.231076002 14.899638176
209 1 0.0 22.062862396 5.701638699 25.417032242
210 1 0.0 22.062862396 5.701638699 21.911233902
211 1 0.0 22.062862396 5.701638699 18.405437469
212 1 0.0 22.062862396 5.701638699 14.899638176
213 1 0.0 22.558656693 9.172201157 25.417032242
214 1 0.0 22.558656693 9.172201157 21.911233902
215 1 0.0 22.558656693 9.172201157 18.405437469
216 1 0.0 22.558656693 9.172201157 14.899638176
217 1 0.0 23.054450989 12.642762184 25.417032242
218 1 0.0 23.054450989 12.642762184 21.911233902
219 1 0.0 23.054450989 12.642762184 18.405437469
220 1 0.0 23.054450989 12.642762184 14.899638176
221 1 0.0 23.550245285 16.113325119 25.417032242
222 1 0.0 23.550245285 16.113325119 21.911233902
223 1 0.0 23.550245285 16.113325119 18.405437469
224 1 0.0 23.550245285 16.113325119 14.899638176
225 1 0.0 24.046039581 19.5838871 25.417032242
226 1 0.0 24.046039581 19.5838871 21.911233902
227 1 0.0 24.046039581 19.5838871 18.405437469
228 1 0.0 24.046039581 19.5838871 14.899638176
229 1 0.0 24.541837692 23.054450989 25.417032242
230 1 0.0 24.541837692 23.054450989 21.911233902
231 1 0.0 24.541837692 23.054450989 18.405437469
232 1 0.0 24.541837692 23.054450989 14.899638176
233 1 0.0 0.743691981 5.205843925 25.417032242
234 1 0.0 0.743691981 5.205843925 21.911233902
235 1 0.0 0.743691981 5.205843925 18.405437469
236 1 0.0 0.743691981 5.205843925 14.899638176
237 1 0.0 1.239486575 8.67640686 25.417032242
238 1 0.0 1.239486575 8.67640686 21.911233902
239 1 0.0 1.239486575 8.67640686 18.405437469
240 1 0.0 1.239486575 8.67640686 14.899638176
241 1 0.0 1.73528111 12.146968842 25.417032242
242 1 0.0 1.73528111 12.146968842 21.911233902
243 1 0.0 1.73528111 12.146968842 18.405437469
244 1 0.0 1.73528111 12.146968842 14.899638176
245 1 0.0 2.231076002 15.617530823 25.417032242
246 1 0.0 2.231076002 15.617530823 21.911233902
247 1 0.0 2.231076002 15.617530823 18.405437469
248 1 0.0 2.231076002 15.617530823 14.899638176
249 1 0.0 2.726870537 19.088092804 25.417032242
250 1 0.0 2.726870537 19.088092804 21.911233902
251 1 0.0 2.726870537 19.088092804 18.405437469
252 1 0.0 2.726870537 19.088092804 14.899638176
253 1 0.0 3.222664833 22.558656693 25.417032242
254 1 0.0 3.222664833 22.558656693 21.911233902
255 1 0.0 3.222664833 22.558656693 18.405437469
256 1 0.0 3.222664833 22.558656693 14.899638176
257 1 0.0 3.718459845 1.239488363 25.417032242
258 1 0.0 3.718459845 1.239488363 21.911233902
259 1 0.0 3.718459845 1.239488363 18.405437469
260 1 0.0 3.718459845 1.239488363 14.899638176
261 1 0.0 4.214254856 4.710049152 25.417032242
262 1 0.0 4.214254856 4.710049152 21.911233902
263 1 0.0 4.214254856 4.710049152 18.405437469
264 1 0.0 4.214254856 4.710049152 14.899638176
265 1 0.0 4.710049152 8.180610657 25.417032242
266 1 0.0 4.710049152 8.180610657 21.911233902
267 1 0.0 4.710049152 8.180610657 18.405437469
268 1 0.0 4.710049152 8.180610657 14.899638176
269 1 0.0 5.205843925 11.651174545 25.417032242
270 1 0.0 5.205843925 11.651174545 21.911233902
271 1 0.0 5.205843925 11.651174545 18.405437469
272 1 0.0 5.205843925 11.651174545 14.899638176
273 1 0.0 5.701638699 15.121736526 25.417032242
274 1 0.0 5.701638699 15.121736526 21.911233902
275 1 0.0 5.701638699 15.121736526 18.405437469
276 1 0.0 5.701638699 15.121736526 14.899638176
277 1 0.0 6.197432995 18.592298508 25.417032242
278 1 0.0 6.197432995 18.592298508 21.911233902
279 1 0.0 6.197432995 18.592298508 18.405437469
280 1 0.0 6.197432995 18.592298508 14.899638176
281 1 0.0 6.693226814 22.062862396 25.417032242
282 1 0.0 6.693226814 22.062862396 21.911233902
283 1 0.0 6.693226814 22.062862396 18.405437469
284 1 0.0 6.693226814 22.062862396 14.899638176
285 1 0.0 7.189021587 0.743691266 25.417032242
286 1 0.0 7.189021587 0.743691266 21.911233902
287 1 0.0 7.189021587 0.743691266 18.405437469
288 1 0.0 7.189021587 0.743691266 14.899638176
289 1 0.0 7.684816837 4.214254856 25.417032242
290 1 0.0 7.684816837 4.214254856 21.911233902
291 1 0.0 7.684816837 4.214254856 18.405437469
292 1 0.0 7.684816837 4.214254856 14.899638176
293 1 0.0 8.180610657 7.684816837 25.417032242
294 1 0.0 8.180610657 7.684816837 21.911233902
295 1 0.0 8.180610657 7.684816837 18.405437469
296 1 0.0 8.180610657 7.684816837 14.899638176
297 1 0.0 8.67640686 11.155380249 25.417032242
298 1 0.0 8.67640686 11.155380249 21.911233902
299 1 0.0 8.67640686 11.155380249 18.405437469
300 1 0.0 8.67640686 11.155380249 14.899638176
301 1 0.0 9.172201157 14.625940323 25.417032242
302 1 0.0 9.172201157 14.625940323 21.911233902
303 1 0.0 9.172201157 14.625940323 18.405437469
304 1 0.0 9.172201157 14.625940323 14.899638176
305 1 0.0 9.667995453 18.096504211 25.417032242
306 1 0.0 9.667995453 18.096504211 21.911233902
307 1 0.0 9.667995453 18.096504211 18.405437469
308 1 0.0 9.667995453 18.096504211 14.899638176
309 1 0.0 10.163789749 21.5670681 25.417032242
310 1 0.0 10.163789749 21.5670681 21.911233902
311 1 0.0 10.163789749 21.5670681 18.405437469
312 1 0.0 10.163789749 21.5670681 14.899638176
313 1 0.0 10.659584045 0.247897074 25.417032242
314 1 0.0 10.659584045 0.247897074 21.911233902
315 1 0.0 10.659584045 0.247897074 18.405437469
316 1 0.0 10.659584045 0.247897074 14.899638176
317 1 0.0 11.155380249 3.718459845 25.417032242
318 1 0.0 11.155380249 3.718459845 21.911233902
319 1 0.0 11.155380249 3.718459845 18.405437469
320 1 0.0 11.155380249 3.718459845 14.899638176
321 1 0.0 11.651174545 7.189021587 25.417032242
322 1 0.0 11.651174545 7.189021587 21.911233902
323 1 0.0 11.651174545 7.189021587 18.405437469
324 1 0.0 11.651174545 7.189021587 14.899638176
325 1 0.0 12.146968842 10.659584999 25.417032242
326 1 0.0 12.146968842 10.659584999 21.911233902
327 1 0.0 12.146968842 10.659584999 18.405437469
328 1 0.0 12.146968842 10.659584999 14.899638176
329 1 0.0 12.642762184 14.130146027 25.417032242
330 1 0.0 12.642762184 14.130146027 21.911233902
331 1 0.0 12.642762184 14.130146027 18.405437469
332 1 0.0 12.642762184 14.130146027 14.899638176
333 1 0.0 13.13855648 17.600708008 25.417032242
334 1 0.0 13.13855648 17.600708008 21.911233902
335 1 0.0 13.13855648 17.600708008 18.405437469
336 1 0.0 13.13855648 17.600708008 14.899638176
337 1 0.0 13.63435173 21.071271896 25.417032242
338 1 0.0 13.63435173 21.071271896 21.911233902
339 1 0.0 13.63435173 21.071271896 18.405437469
340 1 0.0 13.63435173 21.071271896 14.899638176
341 1 0.0 14.130146027 24.541837692 25.417032242
342 1 0.0 14.130146027 24.541837692 21.911233902
343 1 0.0 14.130146027 24.541837692 18.405437469
344 1 0.0 14.130146027 24.541837692 14.899638176
345 1 0.0 14.625940323 3.222664833 25.417032242
346 1 0.0 14.625940323 3.222664833 21.911233902
347 1 0.0 14.625940323 3.222664833 18.405437469
348 1 0.0 14.625940323 3.222664833 14.899638176
349 1 0.0 15.121736526 6.693227291 25.417032242
350 1 0.0 15.121736526 6.693227291 21.911233902
351 1 0.0 15.121736526 6.693227291 18.405437469
352 1 0.0 15.121736526 6.693227291 14.899638176
353 1 0.0 15.617530823 10.163789749 25.417032242
354 1 0.0 15.617530823 10.163789749 21.911233902
355 1 0.0 15.617530823 10.163789749 18.405437469
356 1 0.0 15.617530823 10.163789749 14.899638176
357 1 0.0 16.113325119 13.63435173 25.417032242
358 1 0.0 16.113325119 13.63435173 21.911233902
359 1 0.0 16.113325119 13.63435173 18.405437469
360 1 0.0 16.113325119 13.63435173 14.899638176
361 1 0.0 16.609121323 17.104915619 25.417032242
362 1 0.0 16.609121323 17.104915619 21.911233902
363 1 0.0 16.609121323 17.104915619 18.405437469
364 1 0.0 16.609121323 17.104915619 14.899638176
365 1 0.0 17.104915619 20.575475693 25.417032242
366 1 0.0 17.104915619 20.575475693 21.911233902
367 1 0.0 17.104915619 20.575475693 18.405437469
368 1 0.0 17.104915619 20.575475693 14.899638176
369 1 0.0 17.600708008 24.046039581 25.417032242
370 1 0.0 17.600708008 24.046039581 21.911233902
371 1 0.0 17.600708008 24.046039581 18.405437469
372 1 0.0 17.600708008 24.046039581 14.899638176
373 1 0.0 18.096504211 2.726870537 25.417032242
374 1 0.0 18.096504211 2.726870537 21.911233902
375 1 0.0 18.096504211 2.726870537 18.405437469
376 1 0.0 18.096504211 2.726870537 14.899638176
377 1 0.0 18.592298508 6.197432995 25.417032242
378 1 0.0 18.592298508 6.197432995 21.911233902
379 1 0.0 18.592298508 6.197432995 18.405437469
380 1 0.0 18.592298508 6.197432995 14.899638176
381 1 0.0 19.088092804 9.667995453 25.417032242
382 1 0.0 19.088092804 9.667995453 21.911233902
383 1 0.0 19.088092804 9.667995453 18.405437469
384 1 0.0 19.088092804 9.667995453 14.899638176
385 1 0.0 19.5838871 13.138557434 25.417032242
386 1 0.0 19.5838871 13.138557434 21.911233902
387 1 0.0 19.5838871 13.138557434 18.405437469
388 1 0.0 19.5838871 13.138557434 14.899638176
389 1 0.0 20.079681396 16.609121323 25.417032242
390 1 0.0 20.079681396 16.609121323 21.911233902
391 1 0.0 20.079681396 16.609121323 18.405437469
392 1 0.0 20.079681396 16.609121323 14.899638176
393 1 0.0 20.575475693 20.079681396 25.417032242
394 1 0.0 20.575475693 20.079681396 21.911233902
395 1 0.0 20.575475693 20.079681396 18.405437469
396 1 0.0 20.575475693 20.079681396 14.899638176
397 1 0.0 21.071271896 23.550245285 25.417032242
398 1 0.0 21.071271896 23.550245285 21.911233902
399 1 0.0 21.071271896 23.550245285 18.405437469
400 1 0.0 21.071271896 23.550245285 14.899638176
401 1 0.0 1.73528111 24.541837692 25.417032242
402 1 0.0 1.73528111 24.541837692 21.911233902
403 1 0.0 1.73528111 24.541837692 18.405437469
404 1 0.0 1.73528111 24.541837692 14.899638176
405 1 0.0 23.054450989 0.247897074 25.417032242
406 1 0.0 23.054450989 0.247897074 21.911233902
407 1 0.0 23.054450989 0.247897074 18.405437469
408 1 0.0 23.054450989 0.247897074 14.899638176
409 1 0.0 23.550245285 3.718459129 25.417032242
410 1 0.0 23.550245285 3.718459129 21.911233902
411 1 0.0 23.550245285 3.718459129 18.405437469
412 1 0.0 23.550245285 3.718459129 14.899638176
413 1 0.0 24.046039581 7.189021111 25.417032242
414 1 0.0 24.046039581 7.189021111 21.911233902
415 1 0.0 24.046039581 7.189021111 18.405437469
416 1 0.0 24.046039581 7.189021111 14.899638176
417 1 0.0 24.541837692 10.659586906 25.417032242
418 1 0.0 24.541837692 10.659586906 21.911233902
419 1 0.0 24.541837692 10.659586906 18.405437469
420 1 0.0 24.541837692 10.659586906 14.899638176
421 1 0.0 0.247897074 14.130145073 25.417032242
422 1 0.0 0.247897074 14.130145073 21.911233902
423 1 0.0 0.247897074 14.130145073 18.405437469
424 1 0.0 0.247897074 14.130145073 14.899638176
425 1 0.0 0.743691266 17.600709915 25.417032242
426 1 0.0 0.743691266 17.600709915 21.911233902
427 1 0.0 0.743691266 17.600709915 18.405437469
428 1 0.0 0.743691266 17.600709915 14.899638176
429 1 0.0 1.239488363 21.071273804 25.417032242
430 1 0.0 1.239488363 21.071273804 21.911233902
431 1 0.0 1.239488363 21.071273804 18.405437469
432 1 0.0 1.239488363 21.071273804 14.899638176
433 1 0.0 2.231076002 3.222664833 25.417032242
434 1 0.0 2.231076002 3.222664833 21.911233902
435 1 0.0 2.231076002 3.222664833 18.405437469
436 1 0.0 2.231076002 3.222664833 14.899638176
437 1 0.0 2.726870537 6.693226814 25.417032242
438 1 0.0 2.726870537 6.693226814 21.911233902
439 1 0.0 2.726870537 6.693226814 18.405437469
440 1 0.0 2.726870537 6.693226814 14.899638176
441 1 0.0 3.222664833 10.163789749 25.417032242
442 1 0.0 3.222664833 10.163789749 21.911233902
443 1 0.0 3.222664833 10.163789749 18.405437469
444 1 0.0 3.222664833 10.163789749 14.899638176
445 1 0.0 3.718459845 13.634350777 25.417032242
446 1 0.0 3.718459845 13.634350777 21.911233902
447 1 0.0 3.718459845 13.634350777 18.405437469
448 1 0.0 3.718459845 13.634350777 14.899638176
449 1 0.0 4.214254856 17.104915619 25.417032242
450 1 0.0 4.214254856 17.104915619 21.911233902
451 1 0.0 4.214254856 17.104915619 18.405437469
452 1 0.0 4.214254856 17.104915619 14.899638176
453 1 0.0 4.710049152 20.575475693 25.417032242
454 1 0.0 4.710049152 20.575475693 21.911233902
455 1 0.0 4.710049152 20.575475693 18.405437469
456 1 0.0 4.710049152 20.575475693 14.899638176
457 1 0.0 5.205843925 24.046043396 25.417032242
458 1 0.0 5.205843925 24.046043396 21.911233902
459 1 0.0 5.205843925 24.046043396 18.405437469
460 1 0.0 5.205843925 24.046043396 14.899638176
461 1 0.0 5.701638699 2.726871014 25.417032242
462 1 0.0 5.701638699 2.726871014 21.911233902
463 1 0.0 5.701638699 2.726871014 18.405437469
464 1 0.0 5.701638699 2.726871014 14.899638176
465 1 0.0 6.197432995 6.197432995 25.417032242
466 1 0.0 6.197432995 6.197432995 21.911233902
467 1 0.0 6.197432995 6.197432995 18.405437469
468 1 0.0 6.197432995 6.197432995 14.899638176
469 1 0.0 6.693227291 9.667995453 25.417032242
470 1 0.0 6.693227291 9.667995453 21.911233902
471 1 0.0 6.693227291 9.667995453 18.405437469
472 1 0.0 6.693227291 9.667995453 14.899638176
473 1 0.0 7.189021587 13.13855648 25.417032242
474 1 0.0 7.189021587 13.13855648 21.911233902
475 1 0.0 7.189021587 13.13855648 18.405437469
476 1 0.0 7.189021587 13.13855648 14.899638176
477 1 0.0 7.684816837 16.609121323 25.417032242
478 1 0.0 7.684816837 16.609121323 21.911233902
479 1 0.0 7.684816837 16.609121323 18.405437469
480 1 0.0 7.684816837 16.609121323 14.899638176
481 1 0.0 8.180610657 20.079681396 25.417032242
482 1 0.0 8.180610657 20.079681396 21.911233902
483 1 0.0 8.180610657 20.079681396 18.405437469
484 1 0.0 8.180610657 20.079681396 14.899638176
485 1 0.0 8.67640686 23.5502491 25.417032242
486 1 0.0 8.67640686 23.5502491 21.911233902
487 1 0.0 8.67640686 23.5502491 18.405437469
488 1 0.0 8.67640686 23.5502491 14.899638176
489 1 0.0 9.172201157 2.231076479 25.417032242
490 1 0.0 9.172201157 2.231076479 21.911233902
491 1 0.0 9.172201157 2.231076479 18.405437469
492 1 0.0 9.172201157 2.231076479 14.899638176
493 1 0.0 9.667995453 5.701639175 25.417032242
494 1 0.0 9.667995453 5.701639175 21.911233902
495 1 0.0 9.667995453 5.701639175 18.405437469
496 1 0.0 9.667995453 5.701639175 14.899638176
497 1 0.0 10.163789749 9.172201157 25.417032242
498 1 0.0 10.163789749 9.172201157 21.911233902
499 1 0.0 10.163789749 9.172201157 18.405437469
500 1 0.0 10.163789749 9.172201157 14.899638176
501 1 0.0 10.659584999 12.642762184 25.417032242
502 1 0.0 10.659584999 12.642762184 21.911233902
503 1 0.0 10.659584999 12.642762184 18.405437469
504 1 0.0 10.659584999 12.642762184 14.899638176
505 1 0.0 11.155380249 16.113327026 25.417032242
506 1 0.0 11.155380249 16.113327026 21.911233902
507 1 0.0 11.155380249 16.113327026 18.405437469
508 1 0.0 11.155380249 16.113327026 14.899638176
509 1 0.0 11.651174545 19.5838871 25.417032242
510 1 0.0 11.651174545 19.5838871 21.911233902
511 1 0.0 11.651174545 19.5838871 18.405437469
512 1 0.0 11.651174545 19.5838871 14.899638176
513 1 0.0 12.146968842 23.054454803 25.417032242
514 1 0.0 12.146968842 23.054454803 21.911233902
515 1 0.0 12.146968842 23.054454803 18.405437469
516 1 0.0 12.146968842 23.054454803 14.899638176
517 1 0.0 12.642762184 1.735282421 25.417032242
518 1 0.0 12.642762184 1.735282421 21.911233902
519 1 0.0 12.642762184 1.735282421 18.405437469
520 1 0.0 12.642762184 1.735282421 14.899638176
521 1 0.0 13.138557434 5.205844879 25.417032242
522 1 0.0 13.138557434 5.205844879 21.911233902
523 1 0.0 13.138557434 5.205844879 18.405437469
524 1 0.0 13.138557434 5.205844879 14.899638176
525 1 0.0 13.63435173 8.67640686 25.417032242
526 1 0.0 13.63435173 8.67640686 21.911233902
527 1 0.0 13.63435173 8.67640686 18.405437469
528 1 0.0 13.63435173 8.67640686 14.899638176
529 1 0.0 14.130146027 12.146968842 25.417032242
530 1 0.0 14.130146027 12.146968842 21.911233902
531 1 0.0 14.130146027 12.146968842 18.405437469
532 1 0.0 14.130146027 12.146968842 14.899638176
533 1 0.0 14.625940323 15.617530823 25.417032242
534 1 0.0 14.625940323 15.617530823 21.911233902
535 1 0.0 14.625940323 15.617530823 18.405437469
536 1 0.0 14.625940323 15.617530823 14.899638176
537 1 0.0 15.121736526 19.088092804 25.417032242
538 1 0.0 15.121736526 19.088092804 21.911233902
539 1 0.0 15.121736526 19.088092804 18.405437469
540 1 0.0 15.121736526 19.088092804 14.899638176
541 1 0.0 15.617530823 22.5586586 25.417032242
542 1 0.0 15.617530823 22.5586586 21.911233902
543 1 0.0 15.617530823 22.5586586 18.405437469
544 1 0.0 15.617530823 22.5586586 14.899638176
545 1 0.0 16.113325119 1.239485383 25.417032242
546 1 0.0 16.113325119 1.239485383 21.911233902
547 1 0.0 16.113325119 1.239485383 18.405437469
548 1 0.0 16.113325119 1.239485383 14.899638176
549 1 0.0 16.609121323 4.710050583 25.417032242
550 1 0.0 16.609121323 4.710050583 21.911233902
551 1 0.0 16.609121323 4.710050583 18.405437469
552 1 0.0 16.609121323 4.710050583 14.899638176
553 1 0.0 17.104915619 8.180612564 25.417032242
554 1 0.0 17.104915619 8.180612564 21.911233902
555 1 0.0 17.104915619 8.180612564 18.405437469
556 1 0.0 17.104915619 8.180612564 14.899638176
557 1 0.0 17.600708008 11.651175499 25.417032242
558 1 0.0 17.600708008 11.651175499 21.911233902
559 1 0.0 17.600708008 11.651175499 18.405437469
560 1 0.0 17.600708008 11.651175499 14.899638176
561 1 0.0 18.096504211 15.121736526 25.417032242
562 1 0.0 18.096504211 15.121736526 21.911233902
563 1 0.0 18.096504211 15.121736526 18.405437469
564 1 0.0 18.096504211 15.121736526 14.899638176
565 1 0.0 18.592298508 18.592298508 25.417032242
566 1 0.0 18.592298508 18.592298508 21.911233902
567 1 0.0 18.592298508 18.592298508 18.405437469
568 1 0.0 18.592298508 18.592298508 14.899638176
569 1 0.0 19.088092804 22.062862396 25.417032242
570 1 0.0 19.088092804 22.062862396 21.911233902
571 1 0.0 19.088092804 22.062862396 18.405437469
572 1 0.0 19.088092804 22.062862396 14.899638176
573 1 0.0 19.5838871 0.743691266 25.417032242
574 1 0.0 19.5838871 0.743691266 21.911233902
575 1 0.0 19.5838871 0.743691266 18.405437469
576 1 0.0 19.5838871 0.743691266 14.899638176
577 1 0.0 20.079681396 4.21425581 25.417032242
578 1 0.0 20.079681396 4.21425581 21.911233902
579 1 0.0 20.079681396 4.21425581 18.405437469
580 1 0.0 20.079681396 4.21425581 14.899638176
581 1 0.0 20.575475693 7.684815407 25.417032242
582 1 0.0 20.575475693 7.684815407 21.911233902
583 1 0.0 20.575475693 7.684815407 18.405437469
584 1 0.0 20.575475693 7.684815407 14.899638176
585 1 0.0 21.071271896 11.155381203 25.417032242
586 1 0.0 21.071271896 11.155381203 21.911233902
587 1 0.0 21.071271896 11.155381203 18.405437469
588 1 0.0 21.071271896 11.155381203 14.899638176
589 1 0.0 21.5670681 14.62594223 25.417032242
590 1 0.0 21.5670681 14.62594223 21.911233902
591 1 0.0 21.5670681 14.62594223 18.405437469
592 1 0.0 21.5670681 14.62594223 14.899638176
593 1 0.0 22.062862396 18.096504211 25.417032242
594 1 0.0 22.062862396 18.096504211 21.911233902
595 1 0.0 22.062862396 18.096504211 18.405437469
596 1 0.0 22.062862396 18.096504211 14.899638176
597 1 0.0 22.558656693 21.5670681 25.417032242
598 1 0.0 22.558656693 21.5670681 21.911233902
599 1 0.0 22.558656693 21.5670681 18.405437469
600 1 0.0 22.558656693 21.5670681 14.899638176
601 1 0.0 1.983178496 1.487383962 27.169931412
602 1 0.0 1.983178496 1.487383962 23.664133072
603 1 0.0 1.983178496 1.487383962 20.158336639
604 1 0.0 1.983178496 1.487383962 16.6525383
605 1 0.0 23.302349091 1.983178496 27.169931412
606 1 0.0 23.302349091 1.983178496 23.664133072
607 1 0.0 23.302349091 1.983178496 20.158336639
608 1 0.0 23.302349091 1.983178496 16.6525383
609 1 0.0 23.798143387 5.453741074 27.169931412
610 1 0.0 23.798143387 5.453741074 23.664133072
611 1 0.0 23.798143387 5.453741074 20.158336639
612 1 0.0 23.798143387 5.453741074 16.6525383
613 1 0.0 24.293937683 8.924304008 27.169931412
614 1 0.0 24.293937683 8.924304008 23.664133072
615 1 0.0 24.293937683 8.924304008 20.158336639