# LAMMPS data file written by Ovito Basic 3.0.0-dev791
160 atoms
5 atom types
0.0 21.1343803406 xlo xhi
0.0 26.6469993591 ylo yhi
0.0 19.1564006805 zlo zhi

Atoms  # charge

1 1 0.0 4.7008237196 20.3789715655 8.5182231868
2 1 0.0 7.1397674986 26.531131784 8.6181289311
3 1 0.0 8.4306844039 6.348997126 8.5730329249
4 1 0.0 9.2006874006 2.8309696708 9.6815704238
5 1 0.0 10.6726181813 25.9305963002 9.6074504975
6 1 0.0 14.3378625266 26.3460131608 9.6438172384
7 1 0.0 4.6761977071 23.9225191451 9.6389232569
8 1 0.0 11.9655614509 5.4901842686 9.5064832204
9 1 0.0 15.2677355501 7.0555729581 8.5702912608
10 1 0.0 2.2614177528 14.2280699115 8.6196874958
11 1 0.0 12.8117585595 13.2323975591 8.5987644344
12 1 0.0 17.7244702928 0.8793704578 8.6028577741
13 1 0.0 0.9689600455 7.7632414503 8.5737687988
14 1 0.0 0.1994393353 11.2819698548 9.6825306767
15 1 0.0 10.8167187267 16.2586672452 9.6297459618
16 1 0.0 19.7191744059 24.4993195337 9.6329822632
17 1 0.0 19.8629382384 14.8297281666 9.6074082768
18 1 0.0 9.3063183862 12.7220609958 9.6516231843
19 1 0.0 0.0952518914 1.3892567668 9.6565061509
20 1 0.0 7.218822656 9.8352898436 8.5892139534
21 1 0.0 2.180799877 4.276544098 8.591669076
22 1 0.0 16.1973962153 14.4137510262 9.6424875543
23 1 0.0 5.6449735665 13.124975031 9.7008521648
24 1 0.0 3.7575548805 0.9870650252 9.7039611912
25 1 0.0 4.7262453146 16.8354664613 9.6390466816
26 1 0.0 15.2876553376 10.6436791437 9.6162472891
27 1 0.0 15.2482845654 3.468596019 9.6192192514
28 1 0.0 18.5687275822 8.6238940965 9.5049710716
29 1 0.0 8.0323898876 18.8688956515 9.467723845
30 1 0.0 1.368938042 21.889092593 9.468533452
31 1 0.0 4.7001867294 7.0561973239 9.6059534631
32 2 0.0 11.5450363773 19.8048301478 8.6488482885
33 2 0.0 18.9899544441 20.9547290705 8.6488835554
34 2 0.0 17.7698330422 17.7038315218 8.6735790676
35 2 0.0 12.7649698312 23.0554609334 8.6752962857
36 2 0.0 15.267581882 20.3793856599 9.5925700545
37 3 0.0 12.2886503739 2.191659179 8.6576864962
38 3 0.0 18.2472581023 11.9224599027 8.6552752609
39 3 0.0 7.690746289 15.556301719 8.6532751219
40 3 0.0 1.7111432445 25.2028469756 8.6570497566
41 4 0.0 16.2755482161 23.2254043835 9.1330687662
42 4 0.0 14.2586452685 17.5341858786 9.1318935594
43 4 0.0 3.7415467075 10.12434197 9.1537202091
44 4 0.0 5.6573041459 3.987352288 9.153615232
45 5 0.0 4.7005310084 20.3782923069 6.8475874683
46 5 0.0 4.7005924461 7.0568491628 11.2742729237
47 5 0.0 7.099432576 26.5212884357 6.9457820288
48 5 0.0 8.4418905075 6.2927137337 6.9027767139
49 5 0.0 9.1959208159 2.8220812711 11.3603458885
50 5 0.0 10.6698398133 25.9568637397 11.2874224709
51 5 0.0 12.7545072773 23.0923239126 7.0956629529
52 5 0.0 14.3054938282 26.3615287759 11.3252934108
53 5 0.0 12.2889327714 2.2064600949 6.9469699172
54 5 0.0 4.6888505436 23.8716598561 11.3161580489
55 5 0.0 11.9674749789 5.571533534 11.1815788937
56 5 0.0 16.4394633422 23.6884257887 10.904548452
57 5 0.0 15.6604954795 5.224180411 9.1090032889
58 5 0.0 16.775333662 2.5132200584 9.0992089468
59 5 0.0 5.5071024853 0.7923260892 9.1864800296
60 5 0.0 16.9419603079 21.2494408064 9.0765712343
61 5 0.0 19.4466067965 1.582542642 9.1357167938
62 5 0.0 21.0476150442 26.0399085803 9.2322123923
63 5 0.0 18.9302537295 22.9173563307 9.1020651087
64 5 0.0 3.9375907412 5.3065514289 9.0028635154
65 5 0.0 0.8043466184 3.0931075018 9.1943679649
66 5 0.0 0.3583660713 23.6698620766 9.1097924751
67 5 0.0 20.9146501826 21.0666698638 9.0197332548
68 5 0.0 1.9094586534 0.6746845433 9.0625802421
69 5 0.0 2.7416052878 23.4499883851 9.1277795882
70 5 0.0 2.7651756591 20.8040094052 8.9080408454
71 5 0.0 1.2954214026 5.9179188379 8.9816998304
72 5 0.0 3.5752663695 2.8348990373 9.0857484337
73 5 0.0 3.6227655512 25.6530424339 9.2840457238
74 5 0.0 7.9107971824 1.6457858842 9.1161579746
75 5 0.0 15.2674456075 7.0544850144 6.8993513004
76 5 0.0 15.2679417794 20.378381974 11.1710677001
77 5 0.0 2.3008082645 14.2373631591 6.9473685619
78 5 0.0 12.7971459742 13.221899121 6.9258071135
79 5 0.0 17.7396893503 0.8903433191 6.929877159
80 5 0.0 0.9580064766 7.8194933193 6.9035389279
81 5 0.0 11.5743376106 19.797106595 7.0703601828
82 5 0.0 18.9606652151 20.9639202867 7.0704059474
83 5 0.0 0.2019609628 11.2898697575 11.361290663
84 5 0.0 10.8095647179 16.2582794248 11.3104813561
85 5 0.0 19.7259434943 24.4977889833 11.3138119454
86 5 0.0 19.8644878957 14.8041576794 11.287316287
87 5 0.0 9.2904501862 12.7298257715 11.3272706195
88 5 0.0 0.1109598716 1.3819423521 11.3321964006
89 5 0.0 17.7797293003 17.6671150744 7.0940379538
90 5 0.0 7.2631545761 9.923951392 6.9194178983
91 5 0.0 2.1359929829 4.1865924885 6.9219453938
92 5 0.0 16.2286152879 14.3975841318 11.3239055487
93 5 0.0 5.7000441399 13.0867832458 11.3769089148
94 5 0.0 3.7052874022 1.0268228012 11.3800347988
95 5 0.0 18.2481890506 11.9092219399 6.9446081821
96 5 0.0 7.6642759003 15.5335868308 6.9430022818
97 5 0.0 1.7374097709 25.2278636583 6.9467518791
98 5 0.0 4.7157289949 16.8846508798 11.316293274
99 5 0.0 15.2542410369 10.6242635804 11.2929977881
100 5 0.0 15.2822087753 3.4889156084 11.2959819722
101 5 0.0 18.5652653269 8.5452037753 11.1801849208
102 5 0.0 7.9823835766 18.9485083319 11.1456065065
103 5 0.0 1.4190166537 21.8084903762 11.1464201554
104 5 0.0 14.095284307 17.0707976774 10.9029111162
105 5 0.0 3.6038815174 10.316375676 10.9733898322
106 5 0.0 5.7968258856 3.7959893137 10.9735952846
107 5 0.0 14.8752821326 8.8877660076 9.1071905953
108 5 0.0 4.3100818065 18.5674447562 9.0952600656
109 5 0.0 5.0917075923 22.1909158801 9.0935424069
110 5 0.0 13.7607229873 11.5986261408 9.0955064935
111 5 0.0 3.1964369556 15.8855997145 9.1474730386
112 5 0.0 6.2051455376 24.8730583289 9.1461682004
113 5 0.0 3.8946159231 13.3193216965 9.1865411385
114 5 0.0 14.4546865336 14.1892798746 9.1112856782
115 5 0.0 16.0810436318 26.569996246 9.1142028724
116 5 0.0 13.592668397 19.5102706995 9.0763851874
117 5 0.0 3.0298494295 8.0153714145 9.0105401556
118 5 0.0 6.3697821491 6.0967001917 9.0098226143
119 5 0.0 11.0893392355 12.528698697 9.1307721054
120 5 0.0 0.5136672043 14.9788251895 9.1094029297
121 5 0.0 8.8878045447 25.781433779 9.108150331
122 5 0.0 9.4885321659 14.7185679971 9.2276426904
123 5 0.0 20.0559517077 12.7597926938 9.2195592065
124 5 0.0 10.4796318697 1.3537030879 9.2196985693
125 5 0.0 11.6056095826 17.8413196995 9.1001466527
126 5 0.0 1.0254167384 9.6561056404 9.1418118816
127 5 0.0 8.3751035409 4.4566829033 9.1411938387
128 5 0.0 5.4618168129 8.8057352986 9.0015911856
129 5 0.0 16.0292671686 18.6753679548 9.0784986939
130 5 0.0 14.5053024657 22.0841590206 9.0804016524
131 5 0.0 8.5964012147 11.0185432417 9.1901238069
132 5 0.0 19.1498043086 16.4570435233 9.1546934692
133 5 0.0 11.3856560976 24.3027316956 9.1564958757
134 5 0.0 9.0433404385 17.0887878661 9.1073382911
135 5 0.0 19.5943264567 10.3890184607 9.1481757337
136 5 0.0 10.9408310938 3.7247197022 9.1501552604
137 5 0.0 9.6208459407 19.6921241859 9.0192519311
138 5 0.0 20.1794128189 7.7703489778 9.0160493449
139 5 0.0 10.3549436118 6.3427879221 9.0155582514
140 5 0.0 7.4923573324 13.437204824 9.0568815961
141 5 0.0 18.0662212328 14.0067673013 9.0692056557
142 5 0.0 12.469366656 0.106592714 9.0698848651
143 5 0.0 6.6602015046 17.308430608 9.1266375219
144 5 0.0 17.2250208624 10.1444382576 9.1409427749
145 5 0.0 13.3101103547 3.9687159896 9.1463550328
146 5 0.0 6.6362429582 19.9543323383 8.9077973292
147 5 0.0 17.1866741989 7.4974869287 8.9747485856
148 5 0.0 13.3485066628 6.6150446847 8.9756289563
149 5 0.0 8.1037149129 8.1940844454 8.9809857756
150 5 0.0 18.6505184584 19.2378537352 9.1191478673
151 5 0.0 11.8842091977 21.5214197473 9.1204858461
152 5 0.0 5.8258731259 11.2771696644 9.0837100777
153 5 0.0 16.4942066709 16.1503633675 9.1119782013
154 5 0.0 14.041132276 24.6095300308 9.1127611234
155 5 0.0 5.7788791194 15.1056039647 9.2794085339
156 5 0.0 16.3212526028 12.3589508625 9.2225024917
157 5 0.0 14.2145764081 1.7541629345 9.2244709651
158 5 0.0 1.4903183467 12.4671454609 9.1195743463
159 5 0.0 12.0626364574 15.0225949644 9.0827321052
160 5 0.0 18.4732702858 25.735940263 9.0868063268
