LAMMPS data file via write_data, version 12 Dec 2018, timestep = 17000000

4240 atoms
3 atom types

7.7113814837511455e+01 1.1388618516248755e+02 xlo xhi
7.7113814837511455e+01 1.1388618516248755e+02 ylo yhi
7.7113814837511455e+01 1.1388618516248755e+02 zlo zhi

Masses

1 12
2 14
3 1.008

Atoms # charge

2705 1 2.4661215775943382e-01 8.0468273702569931e+01 8.4631721242486336e+01 7.9557423197500199e+01 -1 4 -2
4105 3 1.0421596625514019e-01 8.3747146717108819e+01 8.2081806410113671e+01 8.1384007109723953e+01 0 0 0
2706 2 -3.1137751954572457e-01 8.0984824615128488e+01 8.3528104411212709e+01 8.0139617331420354e+01 -1 4 -2
2709 1 -1.7785335346435421e-02 7.8699713748525994e+01 8.2813148662191225e+01 8.0810930182840124e+01 -1 4 -2
2710 1 2.5255919401436622e-01 8.0189010816109359e+01 8.2657503876642295e+01 8.0759582400549832e+01 -1 4 -2
2711 2 -3.1148453559058153e-01 8.0799011944565137e+01 8.1621271750574664e+01 8.1356437200139084e+01 -1 4 -2
4107 1 -8.3679213707543096e-03 8.4054011641344800e+01 8.4033903237209316e+01 8.2381580188536802e+01 0 0 0
68 1 -7.8034235130165441e-02 8.1904833472625327e+01 8.1589545685819544e+01 8.5047976920058886e+01 0 0 0
610 1 2.6845370142223596e-01 7.9294224509720863e+01 7.9218410618148454e+01 7.9218800284078810e+01 0 0 1
606 2 -2.6052329639700672e-01 7.8834477535376351e+01 8.0339225131626321e+01 7.8674042198120802e+01 0 0 1
609 1 -8.6719510579814918e-04 8.0749468678757822e+01 7.8859124893946259e+01 7.9072421951141351e+01 0 0 1
4106 1 -7.8000033440752611e-02 8.2736257228648398e+01 8.4302663789922704e+01 8.2682756831151977e+01 0 0 0
4110 3 1.3341848306006218e-01 8.1964930409841372e+01 8.3614826571024722e+01 8.2385231303051000e+01 0 0 0
72 3 8.9876767248061484e-02 8.1100287843864152e+01 8.0970326095373650e+01 8.4743461755523256e+01 0 0 0
69 1 -2.3385287632137226e-02 8.3250146837742278e+01 8.1309116497603611e+01 8.4694882342303572e+01 0 0 0
70 1 2.4954550308969756e-01 8.4388624991912522e+01 8.2206609124960139e+01 8.5077342064737593e+01 0 0 0
63 1 -9.1823886422058285e-02 8.3514994562302192e+01 8.0120140144122658e+01 8.4022658003603851e+01 0 0 0
67 3 1.4565536982810029e-01 8.2660060922700126e+01 7.9512660557899196e+01 8.3731139343106094e+01 0 0 0
4101 1 -7.0570962263971540e-02 8.4458584093797867e+01 8.2785804338798499e+01 8.1840907650760371e+01 0 0 0
64 1 -2.5143386963516423e-02 8.4855255646944627e+01 7.9816462174531509e+01 8.3698688741861076e+01 0 0 0
603 1 -3.6337772907736793e-02 8.1614084180600145e+01 7.9797067217983525e+01 7.8498637286629361e+01 0 0 1
2714 1 -3.0107346347494089e-02 7.8644516596839210e+01 8.0777245434345360e+01 8.2156943909748051e+01 -1 4 -2
2715 1 2.5918200734465180e-01 8.0080322532003507e+01 8.0665532295081135e+01 8.1999895351598482e+01 -1 4 -2
2716 2 -3.2546072307029261e-01 8.0651999969599302e+01 7.9525219429743387e+01 8.2509757244648142e+01 -1 4 -2
2703 1 -6.0643570927772311e-02 7.8086874725388114e+01 8.3959807464288801e+01 8.0226319802072780e+01 -1 4 -2
605 1 2.5924525097202838e-01 7.9630873789017087e+01 8.1260043422679956e+01 7.8074721377054601e+01 0 0 1
607 3 7.6194437498083190e-02 8.2665122048091021e+01 7.9513543106555701e+01 7.8289155531491886e+01 0 0 1
604 1 -5.8835259768412577e-03 8.1097029464985567e+01 8.1017703645143740e+01 7.8020808675832654e+01 0 0 1
4115 3 6.2279909316101036e-02 8.0342230920443342e+01 8.5176129272035965e+01 8.3178416115047852e+01 0 0 0
4112 1 -1.6895733531838396e-02 8.2403458091749414e+01 8.5533755980824395e+01 8.3308317931589983e+01 0 0 0
2704 1 -1.2021466197986247e-02 7.8993756102159068e+01 8.4784431392361157e+01 7.9542170639271660e+01 -1 4 -2
4109 2 -1.9960415619438945e-01 8.4768666511941987e+01 8.6137816235203502e+01 8.3529459574722438e+01 0 0 0
58 1 -7.0062533086787754e-02 8.5149991835749915e+01 7.8707722343716242e+01 8.2921270123966607e+01 0 0 0
2701 2 -2.8780519893505097e-01 8.1282749938850955e+01 8.5525560070520541e+01 7.8951047088619063e+01 -1 4 -2
4111 1 -6.2314647041258484e-02 8.1050646881959764e+01 8.5880255573221774e+01 8.3465515762379738e+01 0 0 0
4113 1 2.3222631204276920e-01 8.3483637883141498e+01 8.6445565957025238e+01 8.3751107301477674e+01 0 0 0
2698 1 -6.8047889063687805e-02 7.8475343528255934e+01 8.5870945879026038e+01 7.8835629060281704e+01 -1 4 -2
4117 1 -2.7077966056678456e-02 8.0768190618653492e+01 8.7160743513635325e+01 8.4024448538755195e+01 0 0 0
2551 3 9.5554567090492093e-02 8.2429786904185875e+01 8.7636276579193876e+01 8.0397213436451821e+01 0 0 0
4116 1 -5.3829127482502008e-02 7.9439501345217138e+01 8.7603844786446601e+01 8.4198942486994454e+01 0 0 0
4114 2 -2.1550081529894977e-01 8.3131427199520331e+01 8.7607816878906519e+01 8.4339813322270430e+01 0 0 0
2550 3 4.1173661328644438e-02 7.9957020774678611e+01 8.8238142351902212e+01 8.1092165185329037e+01 0 0 0
4118 1 2.4759539752604906e-01 8.1883590590126147e+01 8.7961932209690133e+01 8.4590515451024459e+01 0 0 0
2547 1 6.0673014601164726e-02 8.2141935163401811e+01 8.8572405547055808e+01 8.0972694647419843e+01 0 0 0
4108 1 2.1531241165556336e-01 8.5104294452468380e+01 8.5028475829926535e+01 8.2834095627311683e+01 0 0 0
66 2 -2.6788137973211384e-01 8.5641230377667156e+01 8.1783358596804490e+01 8.4850189620123132e+01 0 0 0
2869 3 8.1348721217348707e-02 8.4104980696033707e+01 8.7023283427029952e+01 8.0862508568168579e+01 0 0 1
4120 3 3.5547360521284578e-02 7.8582143412043379e+01 8.7060531207331294e+01 8.3798932445251154e+01 0 0 0
2708 1 -5.5789105634442934e-02 7.7955013293516856e+01 8.1856887898818073e+01 8.1528102052632832e+01 -1 4 -2
4122 1 -3.1603773137741029e-02 7.9211371388124476e+01 8.8803881498189781e+01 8.4884974801310108e+01 0 0 0
3746 2 -2.2776164101421542e-01 8.5498720674919284e+01 8.8438334169080761e+01 8.5607614351389401e+01 0 0 0
4100 3 6.6116956188429069e-02 8.5688708725415680e+01 8.0672058854149029e+01 8.0591870303622485e+01 0 0 0
2713 1 -5.3815427846121353e-02 7.7841541546383041e+01 7.9744851383934005e+01 8.2787739326497928e+01 -1 4 -2
62 3 6.8891104713813378e-02 8.4390082758471408e+01 7.7976654521541434e+01 8.2644875959425107e+01 0 0 0
2865 1 8.0677829724520547e-02 8.5081881130301866e+01 8.7234785965971227e+01 8.0336289389390245e+01 0 0 1
2702 3 1.0335032753421161e-01 7.7451354828444579e+01 8.6069921592143601e+01 7.8726118093820773e+01 -1 4 -2
611 2 -2.8022767913728197e-01 7.8513285159613616e+01 7.8328262106832355e+01 7.9815450197690893e+01 0 0 1
2699 1 -1.3502022071347444e-02 7.9327753781365629e+01 8.6732490703636728e+01 7.8123302313031061e+01 -1 4 -2
2700 1 2.2891300859173833e-01 8.0801246861515409e+01 8.6603875130539677e+01 7.8280274120597895e+01 -1 4 -2
2546 1 -5.7217571250770705e-02 8.0775155559058931e+01 8.8918033098135453e+01 8.1320422790941407e+01 0 0 0
2719 1 -2.1777327515273712e-02 7.8502796788275333e+01 7.8617384797053361e+01 8.3319654395443578e+01 -1 4 -2
2720 1 2.5685517392545432e-01 7.9973597071226408e+01 7.8545839685474618e+01 8.3090422929976810e+01 -1 4 -2
2868 3 9.9705534886935315e-02 8.5418239417162084e+01 8.5195329662239772e+01 7.9591985002765554e+01 0 0 1
2864 1 -5.8679083603997928e-02 8.5765784193537726e+01 8.6199729601529228e+01 7.9680715480061906e+01 0 0 1
77 3 4.2112936779266121e-02 7.9485753744850584e+01 8.2365812160955372e+01 8.5800456429466152e+01 0 0 0
4102 1 -1.3989422586050806e-02 8.5834646191905520e+01 8.2545422573590898e+01 8.1658502518009371e+01 0 0 0
2433 2 -2.8329395887909847e-01 8.6249156378173907e+01 8.1512915843086560e+01 7.7143548193766264e+01 0 0 1
74 1 -3.2660314336196886e-02 8.1678428249338168e+01 8.2793246894670901e+01 8.5730918893542196e+01 0 0 0
608 1 -4.9438338770179287e-02 8.1204733732761554e+01 7.7575536062997898e+01 7.9538514171967307e+01 0 0 1
2697 3 9.0989619932886859e-02 7.7740896088301298e+01 8.7955951552167079e+01 7.7369786747733940e+01 -1 4 -2
65 1 2.3467347570497654e-01 8.5964076371508440e+01 8.0677650375031590e+01 8.4148965714710585e+01 0 0 0
4096 1 -6.1106846202518383e-02 8.6300130601957122e+01 8.1459453071122567e+01 8.0867463788940157e+01 0 0 0
2866 2 -1.6744103318992898e-01 8.5477085969276686e+01 8.8522324828549344e+01 8.0201847847355452e+01 0 0 1
2693 1 -6.4409255725377326e-02 7.8809605840167620e+01 8.7831675683721443e+01 7.7412086113455402e+01 -1 4 -2
2718 1 -6.5595050010088418e-02 7.7734322702350966e+01 7.7588763366654888e+01 8.3900350854731158e+01 -1 4 -2
612 3 8.3528317470954808e-02 8.2221311707596328e+01 7.7298144739888897e+01 7.9396929581442777e+01 0 0 1
2721 2 -2.9003355988578311e-01 8.0602466679136796e+01 7.7379758234664365e+01 8.3417132104591900e+01 -1 4 -2
4119 2 -2.4340335336901642e-01 8.1591236074669041e+01 8.9118648377680131e+01 8.5264820300946454e+01 0 0 0
2696 2 -2.4042200577856554e-01 8.1666109167345425e+01 8.7430044415528144e+01 7.7682768653059284e+01 -1 4 -2
601 2 -2.7086488696045785e-01 7.9147752489645683e+01 8.2346749186318931e+01 7.7448028210533465e+01 0 0 1
73 1 -6.2965780607093375e-02 8.0288956794942251e+01 8.3011407040738561e+01 8.6009039653927729e+01 0 0 0
598 1 -5.0244383671873102e-02 8.1958940789305018e+01 8.1849410423959341e+01 7.7326425690335483e+01 0 0 1
602 3 8.7933343264560870e-02 8.3020460926297758e+01 8.1582903750973827e+01 7.7248170179539116e+01 0 0 1
71 2 -2.7174547959396789e-01 8.4070329407902861e+01 8.3265834844081297e+01 8.5779615858818744e+01 0 0 0
1117 3 8.1651890875444985e-02 7.7456417327854041e+01 8.9126905440583528e+01 8.0189493549499602e+01 0 -2 2
2438 3 3.3443858544103741e-02 8.4765381177579215e+01 8.0086671633364730e+01 7.7277666072739805e+01 0 0 1
4121 1 -6.2770659517857152e-02 7.7841607698237766e+01 8.9287443346440426e+01 8.5029700656734775e+01 0 0 0
2548 2 -1.8594259548254730e-01 8.3149491137770042e+01 8.9344779679308388e+01 8.1265901070870825e+01 0 0 0
1636 2 -2.0481983313922991e-01 8.4739328568749642e+01 8.9349531035160652e+01 7.7186060020272521e+01 1 0 0
75 1 2.3135043464863952e-01 8.2785238073540441e+01 8.3687786788653796e+01 8.6065323638087506e+01 0 0 0
4087 1 -1.6943444279100918e-02 9.1481337443123920e+01 7.9152828400472998e+01 7.8586529418513749e+01 0 0 0
2879 3 1.0998206556955394e-01 9.0815053034750434e+01 8.9245423829714156e+01 7.7288749401700144e+01 0 0 1
3722 3 5.3657714354758183e-02 9.4915870558681107e+01 8.6749549235138261e+01 7.7405190696804922e+01 0 0 0
2874 3 1.3964292217084065e-01 8.9308048671517184e+01 8.7452876985937621e+01 7.7751315634846932e+01 0 0 1
4104 2 -2.0987361102308918e-01 8.6384489175357771e+01 8.4747476288584963e+01 8.2661682344986190e+01 0 0 0
3726 2 -2.2594013262319579e-01 9.1455783520572822e+01 8.4521003967230598e+01 7.9560463602709291e+01 0 0 0
3345 1 -6.5625931975101109e-03 8.8628701097202310e+01 8.3633379559397000e+01 8.6191442529251205e+01 0 0 0
59 1 -3.6483374176459867e-02 8.6476575381963301e+01 7.8568338991418955e+01 8.2491519640259071e+01 0 0 0
4099 2 -2.0896710109296707e-01 8.8103760519016362e+01 8.3371838705177339e+01 8.1933121845240038e+01 0 0 0
3728 1 -6.1934401029261288e-02 9.0972440934481995e+01 8.8175753119802863e+01 8.0141926549867051e+01 0 0 0
3745 1 2.4383191375116989e-01 8.6390687901319467e+01 8.8646643477402009e+01 8.4651790143147920e+01 0 0 0
3327 2 -3.2184394783770248e-01 9.5202651678745895e+01 8.5353857423097821e+01 8.1020294519590195e+01 0 0 0
3925 1 5.9110046081050284e-02 9.4417870697943457e+01 8.8231504590394380e+01 8.4506551667728999e+01 1 -1 0
2612 1 -7.3293414203399701e-02 9.4621574855073561e+01 8.0725987131827452e+01 8.1880519830365529e+01 0 1 0
2602 1 -7.5989114631798735e-02 9.1712807599929135e+01 7.7178734940086571e+01 8.3814896017297755e+01 0 1 0
3924 1 -8.1745182444091583e-02 9.5446969429435896e+01 8.8760706039645072e+01 8.3686266780916981e+01 1 -1 0
2608 1 -7.3934893799509557e-03 9.2965938763664198e+01 7.7680604313413269e+01 8.3361648388685538e+01 0 1 0
3740 1 2.2392260741389028e-01 8.7894159901844773e+01 8.7732417218392342e+01 8.3033329557119956e+01 0 0 0
3720 1 2.3810261219160583e-01 9.4152112459874132e+01 8.3336328165864018e+01 7.7453310439754816e+01 0 0 0
2872 1 2.4120670397615754e-01 8.6570183477914810e+01 8.8903296608520975e+01 7.9491672660061766e+01 0 0 1
4098 1 2.4276576397366822e-01 8.8623485413917081e+01 8.2342802292687466e+01 8.1254244346198888e+01 0 0 0
4091 1 -6.0041935853384493e-02 8.8162716262402370e+01 8.0399656371952588e+01 7.9706536104214251e+01 0 0 0
4094 2 -1.8648872106591316e-01 8.9927371598579214e+01 8.2176598296662050e+01 8.1095226571662636e+01 0 0 0
4089 2 -2.3710434781391432e-01 9.1800582915457341e+01 8.0975117227754666e+01 8.0232400986458217e+01 0 0 0
3725 1 2.4860062497909882e-01 9.2539387837377518e+01 8.4483190981157804e+01 7.8733648831504368e+01 0 0 0
3731 2 -2.3940308838244484e-01 8.9890010929948076e+01 8.5659822640933669e+01 8.0874816064245792e+01 0 0 0
3333 3 1.0057567241633031e-01 9.1888507418063597e+01 8.7847892368343949e+01 8.2812417093098148e+01 0 0 0
4090 3 8.5469013881169759e-02 8.9410739405730027e+01 7.8668769301876097e+01 7.8209053990530748e+01 0 0 0
3342 2 -2.4304031495584344e-01 9.0432287378946725e+01 8.2377502241748644e+01 8.5188172045342867e+01 0 0 0
3718 1 -4.7371386842765401e-02 9.4363713422230177e+01 8.5827807770876376e+01 7.7568863435575423e+01 0 0 0
3729 1 -3.5232597931066617e-02 9.1533239548245703e+01 8.6961438068395140e+01 7.9646949960848403e+01 0 0 0
3734 1 -4.0095998446885411e-02 8.9912886185364016e+01 8.8096298759880270e+01 8.1086849478908093e+01 0 0 0
3329 1 -6.0722442592621426e-02 9.2272739572294427e+01 8.6859482430962103e+01 8.2698824885122875e+01 0 0 0
2863 1 -4.6650139663255541e-02 8.6969043103281692e+01 8.6535539473411191e+01 7.9018119361766537e+01 0 0 1
2606 3 1.1187219345093873e-01 9.0972084094495244e+01 7.7866123143551562e+01 8.4071333950318319e+01 0 1 0
2867 3 1.5021094763606513e-01 8.7548476403427884e+01 8.5721710355556084e+01 7.8540699495737627e+01 0 0 1
53 1 -6.6296093858721261e-02 8.6789338787322862e+01 7.7440173236398280e+01 8.1743930222717353e+01 0 0 0
51 2 -3.0038419181150083e-01 9.0490318781413364e+01 7.7815412922193005e+01 8.1486377875403434e+01 0 0 0
3724 1 -2.3929800354160587e-02 9.3162471747891914e+01 8.5776380015125980e+01 7.8324320755497723e+01 0 0 0
55 1 2.4364479360488317e-01 8.9195466324401167e+01 7.8038162904644850e+01 8.1865029869943797e+01 0 0 0
56 2 -2.8542192943591888e-01 8.8839539006937486e+01 7.9117999028735824e+01 8.2570368608363225e+01 0 0 0
3330 1 -2.4819572510795036e-02 9.3443684128280267e+01 8.6763512108999791e+01 8.1964044540353157e+01 0 0 0
3334 1 -4.8993296712132352e-02 9.0632296591019823e+01 8.5863542763463357e+01 8.4107970176581887e+01 0 0 0
4084 2 -2.4922413107957725e-01 9.3669694278966730e+01 8.0076115892997464e+01 7.9338046111179608e+01 0 0 0
2613 1 8.0133517258348420e-03 9.4429245180884905e+01 7.9387772065354667e+01 8.2412873401345891e+01 0 1 0
3339 1 -6.0570189531539351e-02 8.8978062251915290e+01 8.4863454704704694e+01 8.5593844271371722e+01 0 0 0
61 2 -2.4819623361493251e-01 8.7237623346392866e+01 8.0410531725793660e+01 8.3817298431458042e+01 0 0 0
3325 1 -3.9126430982237406e-02 9.5309751145037637e+01 8.7811372133123214e+01 8.0777936904012606e+01 0 0 0
4082 1 -1.4572761279552253e-02 9.3667404874823234e+01 7.8368362416799201e+01 7.7610324125809882e+01 0 0 0
3723 1 -4.6586413659617035e-02 9.2608010845864186e+01 8.6977278093020686e+01 7.8757199247093638e+01 0 0 0
3735 1 2.2009725892220824e-01 8.9391588130641395e+01 8.6762323806691796e+01 8.1446779337282720e+01 0 0 0
4092 1 -1.2455560997864708e-02 8.9590213526279641e+01 8.0299434388652955e+01 7.9558583268452196e+01 0 0 0
3328 3 6.3557443006083819e-02 9.3617208358100783e+01 8.8853039180733234e+01 8.1769552099810625e+01 0 0 0
3926 2 -2.7380841923335425e-01 9.3266414341777732e+01 8.8845176442957325e+01 8.4804382176064678e+01 1 -1 0
3929 3 8.3527914630193795e-02 9.4392206002234090e+01 8.7245311145881629e+01 8.4900360836998956e+01 1 -1 0
2607 1 -8.1525659224924857e-02 9.3203991951581415e+01 7.9000578804756373e+01 8.3002108970045967e+01 0 1 0
4095 3 7.6986857798283098e-02 8.7452996535069616e+01 7.9783251788864405e+01 7.9201982714800238e+01 0 0 0
3736 2 -2.3535503122726548e-01 8.8343474891289503e+01 8.6687745854834688e+01 8.2309260574766142e+01 0 0 0
3727 3 4.8171130562586165e-02 9.3016444377189046e+01 8.7936264569538608e+01 7.8393788615532060e+01 0 0 0
3733 1 -5.7013127737292654e-02 8.9384838826261685e+01 8.9227842795140290e+01 8.1693774788689936e+01 0 0 0
3341 1 2.5702935870642429e-01 9.0783946277578480e+01 8.3448359219040881e+01 8.4470052197514178e+01 0 0 0
3741 2 -2.2824571501828245e-01 8.6984079504141647e+01 8.7605107505767705e+01 8.4010088514988695e+01 0 0 0
4083 1 2.5730908111286088e-01 9.4411796913483172e+01 7.9268383748350104e+01 7.8510621919158766e+01 0 0 0
4103 1 2.3557647132290940e-01 8.6820953015879084e+01 8.3565348539201921e+01 8.2152636362642610e+01 0 0 0
3331 1 2.7037480577006023e-01 9.4061200094364807e+01 8.5398388110040443e+01 8.1721272048323087e+01 0 0 0
4086 1 -6.5715806739391813e-02 9.0100817576869503e+01 7.9307338912460665e+01 7.8687376963202667e+01 0 0 0
3739 1 -1.5829464482187208e-02 8.8365968346645033e+01 8.9095899867115051e+01 8.2711176976926993e+01 0 0 0
3732 3 3.7996370054902681e-02 9.1375120660386571e+01 8.9116237153181757e+01 7.9891409431711509e+01 0 0 0
3721 2 -2.7004602220397322e-01 9.3042178473742581e+01 8.3379672906679303e+01 7.8212065177721641e+01 0 0 0
3332 2 -2.8658546826527603e-01 9.3472042296161504e+01 8.4337437566678631e+01 8.2246205085285879e+01 0 0 0
4093 1 2.3854773032666607e-01 9.0459907472318321e+01 8.1146799488732924e+01 8.0362855584448084e+01 0 0 0
3346 1 2.4213888043448734e-01 8.9365782184310461e+01 8.2371637099218944e+01 8.6060335957544723e+01 0 0 0
3337 2 -2.2835744819505410e-01 9.1802183409519714e+01 8.3304275063495297e+01 8.3597072799277953e+01 0 0 0
3343 3 1.2839394072994140e-01 8.8615862971465006e+01 8.5860473439244814e+01 8.5849216713425818e+01 0 0 0
3335 1 3.5831843948266155e-03 9.1730947646016844e+01 8.5676221967610388e+01 8.3273833253296289e+01 0 0 0
3336 1 2.7061630837341361e-01 9.2369714559874510e+01 8.4369341779042543e+01 8.3002103272649776e+01 0 0 0
4088 1 2.4386041844104278e-01 9.2333944866436894e+01 8.0056126592723786e+01 7.9419476035769890e+01 0 0 0
4081 1 -6.9328679139251906e-02 9.2232238859384566e+01 7.8247183726969737e+01 7.7763008884299381e+01 0 0 0
3338 3 1.2965027002479335e-01 9.0216602714443752e+01 8.6826135280557068e+01 8.4392268337022728e+01 0 0 0
2616 3 1.8470767157961082e-01 9.3835646395097740e+01 8.1493656708026109e+01 8.1942936410642290e+01 0 1 0
4097 1 -6.4625002573819104e-03 8.7674049029857287e+01 8.1358086563171284e+01 8.0592328546852102e+01 0 0 0
60 1 2.4318396463082870e-01 8.7602275707266656e+01 7.9388130561410136e+01 8.2998522132857744e+01 0 0 0
2611 3 1.5191409692349300e-01 9.2404160059902651e+01 7.9710122816000734e+01 8.3102662076245522e+01 0 1 0
2870 1 -7.4785512286700051e-02 8.8625026219470428e+01 8.8230891582348264e+01 7.8235632047233096e+01 0 0 1
3324 1 -6.0472558102454922e-02 9.4072693147984651e+01 8.7913189169248326e+01 8.1489974789783645e+01 0 0 0
2871 1 -1.4952014814805861e-03 8.7442354670669332e+01 8.7870941189455152e+01 7.8899965682040843e+01 0 0 1
3730 1 2.3368471109695674e-01 9.0910958292065544e+01 8.5647947758909098e+01 8.0004366195598848e+01 0 0 0
3340 1 1.0020098423035601e-02 9.0090115223440009e+01 8.4725517061114104e+01 8.4760747982498728e+01 0 0 0
1815 1 -6.1473912468989610e-02 8.0286253966684100e+01 7.9706921113737650e+01 8.7122930440494599e+01 1 -1 1
80 1 2.2611781365217390e-01 8.1204642073537315e+01 8.5142744280565026e+01 8.6959585088326747e+01 0 0 0
1821 1 -2.4244718223272940e-02 8.1309191596914559e+01 7.8746451886401502e+01 8.7079442470998572e+01 1 -1 1
84 1 -2.4385568179798110e-02 7.8426723220574303e+01 8.5906771384326277e+01 8.7230840120287780e+01 0 0 0
81 2 -2.0894602283305980e-01 8.0851577626925462e+01 8.6348386274176121e+01 8.7418523473092350e+01 0 0 0
85 1 2.3061299994841386e-01 7.9563636905415379e+01 8.6767454032391839e+01 8.7600466911204649e+01 0 0 0
86 2 -2.2796525880458593e-01 7.9254733496053987e+01 8.7971904742354027e+01 8.8048820245915209e+01 0 0 0
4001 1 -2.9273368773800768e-02 7.9254632610602812e+01 8.2668936579474348e+01 9.0421716433916785e+01 1 0 0
3995 1 -6.4917105149532389e-02 8.0552775630083062e+01 8.2103936664437015e+01 9.0406419528297050e+01 1 0 0
3999 3 5.7365672670438426e-02 8.1404052525502365e+01 8.2699629809708654e+01 9.0539103229443242e+01 1 0 0
3997 1 2.6358974057471229e-01 7.9382149738346982e+01 7.9889039027599694e+01 9.0260762710103648e+01 1 0 0
3996 1 -3.1782472699504065e-02 8.0611598820675667e+01 8.0717812579376215e+01 9.0404783844130989e+01 1 0 0
4000 1 -6.9820947298366798e-02 7.9146881373944410e+01 8.4052341435187444e+01 9.0581567702047110e+01 1 0 0
3363 3 3.5225465903701215e-02 8.4016454698472444e+01 8.1483886479699876e+01 9.3145386007456892e+01 0 0 0
2008 1 2.5394516790456834e-01 7.9090177047501655e+01 7.9275396226244126e+01 9.3918305057918047e+01 1 0 -1
3365 1 -5.3898150845317697e-02 8.4573941094106061e+01 7.9463882514754644e+01 9.3784277914237890e+01 0 0 0
4004 3 8.5867218086035937e-02 7.9945134082967144e+01 8.4701003683457230e+01 9.0745689044507102e+01 1 0 0
2007 1 -1.7998305069913480e-02 8.0464476426051121e+01 7.9694256934454572e+01 9.3688620365139684e+01 1 0 -1
2004 2 -2.6531654901338664e-01 7.8113326959891907e+01 8.0233016073649623e+01 9.3960567045169952e+01 1 0 -1
2001 1 -4.7954542597196989e-02 8.0787400583361546e+01 8.1070719911279781e+01 9.3765879374056482e+01 1 0 -1
2003 1 2.6177539849599496e-01 7.8373207666230897e+01 8.1533404482098376e+01 9.4047614189841426e+01 1 0 -1
2002 1 -2.2406850608813277e-02 7.9758430376551999e+01 8.2051220189117799e+01 9.3986375005855223e+01 1 0 -1
1996 1 -4.7071598792435741e-02 8.0070408908148593e+01 8.3423043559025302e+01 9.4102066331179344e+01 1 0 -1
3359 1 -6.0892027482345262e-02 8.4526526043529117e+01 8.0576556643851134e+01 9.2891723486713843e+01 0 0 0
2005 3 4.0435793803815664e-02 8.1784547331710428e+01 8.1370417501856849e+01 9.3451983740020651e+01 1 0 -1
3990 1 -6.4282014081605304e-02 8.1890598299073048e+01 8.0155010280592705e+01 9.0332082752027532e+01 1 0 0
3991 1 -3.5541444288540849e-02 8.2027142877174484e+01 7.8744591219239709e+01 9.0257537953118700e+01 1 0 0
3360 1 -3.6802139563305560e-02 8.5204176397549901e+01 8.0490950549764861e+01 9.1653486502537959e+01 0 0 0
3993 2 -3.0733714204994728e-01 7.9584964765763829e+01 7.8567012679681596e+01 9.0259014837553266e+01 1 0 0
3994 3 5.8467307843689170e-02 8.2728111961527716e+01 8.0778375504127666e+01 9.0131764981656161e+01 1 0 0
3358 3 6.4827671904311712e-02 8.4639166561373685e+01 8.2478018771717544e+01 9.0939465060459582e+01 0 0 0
3354 1 -6.5269577615819946e-02 8.5176571264632443e+01 8.1577784242259682e+01 9.0737238161308426e+01 0 0 0
3989 3 9.5036084328914111e-02 8.4220768495431386e+01 7.8573743987952582e+01 9.0056940249192110e+01 1 0 0
897 1 -3.4125004217331709e-02 8.4432244361867049e+01 8.6075515819411649e+01 9.3511922065869669e+01 0 0 0
891 1 -5.0888497843117622e-02 8.3213014507517528e+01 8.6606154292792752e+01 9.4000664929980545e+01 0 0 0
3985 1 -6.9381696446276148e-02 8.3271253060466833e+01 7.8065784836735091e+01 9.0101432554354901e+01 1 0 0
2010 3 7.7989236321274386e-02 8.2520788629606344e+01 7.9245167613286469e+01 9.3121160968814763e+01 1 0 -1
2006 1 -4.2589886414412088e-02 8.1569825134908342e+01 7.8831791487720480e+01 9.3355085718292301e+01 1 0 -1
1816 1 -2.8408495371950417e-02 7.8906963680391826e+01 7.9347587175136795e+01 8.7178993501538415e+01 1 -1 1
900 3 5.6077565208842176e-02 8.4270784989438837e+01 8.4239061418486216e+01 9.4667511362482543e+01 0 0 0
1817 1 2.5178795849277097e-01 7.8594048910475053e+01 7.7912613295244427e+01 8.7176053525742674e+01 1 -1 1
1997 1 -2.6596352588728507e-02 7.8930229695078410e+01 8.4223033716624911e+01 9.4432011503437124e+01 1 0 -1
3992 1 2.6845947339672221e-01 8.0790380737051052e+01 7.7952827273736062e+01 9.0266206162504460e+01 1 0 0
76 2 -2.3663742876267779e-01 8.2488318733584677e+01 8.4802733177195265e+01 8.6741098127017224e+01 0 0 0
896 1 -5.8758381630998169e-02 8.4777321659247221e+01 8.4790779873527072e+01 9.3905311904161437e+01 0 0 0
1820 1 -6.0393733872791427e-02 8.2675394623096537e+01 7.9096733709443996e+01 8.7081064362456175e+01 1 -1 1
1826 1 -2.5839193604412471e-02 8.3590710786884841e+01 7.8046507185772711e+01 8.6913761395203039e+01 1 -1 1
2000 3 3.9024560002460532e-02 8.1060975885056507e+01 8.3866223305506253e+01 9.4076257668946837e+01 1 0 -1
898 1 2.5124543326443766e-01 8.5272683560031211e+01 8.6802062278797720e+01 9.2514039203743678e+01 0 0 0
1819 3 7.0034554733280546e-02 8.0495948454200843e+01 8.0756450286406704e+01 8.7204090133485053e+01 1 -1 1
90 1 2.3791543121836256e-01 7.8045594024318063e+01 8.8449135692546008e+01 8.8273892567696777e+01 0 0 0
3366 1 2.6823777099970708e-01 8.5232852356923274e+01 7.8205927449748543e+01 9.3355407754899744e+01 0 0 0
905 3 6.9643655115154107e-02 8.5832638533468213e+01 8.2242994994845972e+01 9.4319253406643000e+01 0 0 0
3998 2 -2.9098561502418507e-01 7.8182940354229743e+01 8.0459966971584308e+01 9.0289082169617359e+01 1 0 0
1814 3 6.6856875478095767e-02 7.8063379739331879e+01 8.1363894244718139e+01 8.7496355242091340e+01 1 -1 1
1991 1 -5.3825132758852715e-02 7.9105224800130458e+01 8.5521728174969510e+01 9.4936828591706558e+01 1 0 -1
3353 3 1.0411622646247946e-01 8.5776815920063029e+01 8.3544580851259042e+01 8.9048487098121910e+01 0 0 0
3364 1 -6.4119493652021159e-02 8.3956621545450290e+01 7.9463103721649659e+01 9.5027422547472327e+01 0 0 0
895 3 4.4665914760052772e-02 8.2566898947003565e+01 8.5942353578458992e+01 9.4549545155645589e+01 0 0 0
1824 3 7.1428150922510869e-02 8.2859654109099424e+01 8.0164719305686930e+01 8.6993498391929336e+01 1 -1 1
1825 1 -6.9947598626877730e-02 8.4949090329305108e+01 7.8411155539783650e+01 8.6680348734180285e+01 1 -1 1
894 2 -2.9220013694156993e-01 8.4917845791174102e+01 8.8078906058647902e+01 9.2271847029398572e+01 0 0 0
3362 2 -3.4420175729613323e-01 8.5889464335986787e+01 7.8226761953481258e+01 9.2200449805267652e+01 0 0 0
886 1 -4.6317431515144739e-02 8.1801955447580625e+01 8.8548390502309246e+01 9.4326188477063283e+01 0 0 0
4009 3 9.7002500960225224e-02 7.8446673837924877e+01 8.6516515116486502e+01 9.1219966048011585e+01 1 0 0
892 1 -3.4000794906594099e-02 8.2911869425958130e+01 8.7934510204224409e+01 9.3700907904461332e+01 0 0 0
1999 2 -2.8546281371497134e-01 7.7326647271555970e+01 8.2423777216223115e+01 9.4177427957030133e+01 1 0 -1
1831 1 -2.9807761131694852e-02 8.5879564323403656e+01 7.7368589506600159e+01 8.6623938916769063e+01 1 -1 1
2009 2 -2.4931572024355381e-01 7.8903148693527029e+01 7.7922388344189358e+01 9.3909762237195693e+01 1 0 -1
893 1 2.5535148933305757e-01 8.3837802592391526e+01 8.8679734722324582e+01 9.2824227348551887e+01 0 0 0
3361 1 2.5296167483710097e-01 8.5948821557559882e+01 7.9249902739234557e+01 9.1322302956198641e+01 0 0 0
3355 1 -2.6912139162949801e-02 8.6033204745191995e+01 8.1497990968776236e+01 8.9598351533657507e+01 0 0 0
890 3 3.9844320763907502e-02 8.1129710653178805e+01 8.7961385471239154e+01 9.4942329078639574e+01 0 0 0
2813 3 1.3840530659802552e-01 8.5912694856785038e+01 8.8823310320349833e+01 8.9300423318959929e+01 0 0 -1
3367 2 -3.4821243679624980e-01 8.5207897162159398e+01 7.7117875943544064e+01 9.4160229153471647e+01 0 0 0
4002 1 2.4952492723574854e-01 7.8031212427933525e+01 8.1818630224308123e+01 9.0380813387904453e+01 1 0 0
1822 1 2.3962423664182383e-01 8.0895443059130898e+01 7.7327822719612755e+01 8.7101532858751682e+01 1 -1 1
1998 1 2.5608777479809408e-01 7.7557582593944119e+01 8.3688811236225817e+01 9.4310887147671977e+01 1 0 -1
3368 3 4.9635963763501274e-02 8.3369542426650511e+01 8.0322805748470671e+01 9.5289494647918303e+01 0 0 0
4005 1 -6.7820416592316163e-02 7.7672000821973512e+01 8.5847524908207021e+01 9.0943566513503512e+01 1 0 0
4006 1 -1.9646182199796948e-02 7.7792560874308975e+01 8.4488751378985413e+01 9.0653729204347187e+01 1 0 0
1810 1 -4.9260046328485019e-02 7.7880689387481837e+01 8.0310009569690507e+01 8.7396710628822774e+01 1 -1 1
79 1 -2.9102988219451474e-02 8.0067455207291857e+01 8.4250217328942782e+01 8.6596204093834672e+01 0 0 0
1995 3 5.3985550164538910e-02 8.0057346123343024e+01 8.5924584708003181e+01 9.4934329237604828e+01 1 0 -1
3751 2 -2.2489296461240921e-01 8.3833043287242702e+01 8.9238507612512066e+01 8.7071019801698171e+01 0 0 0
2011 1 -6.1709153882922696e-02 8.1298140052540433e+01 7.7487844003030503e+01 9.3415497370029982e+01 1 0 -1
78 1 -5.6659212116002132e-02 7.8708674353519044e+01 8.4569731063876219e+01 8.6886557420072918e+01 0 0 0
902 1 -3.8390863881324302e-02 8.5857116694460970e+01 8.4185233722850015e+01 9.3235220843351485e+01 0 0 0
1813 2 -2.8980731655886904e-01 7.7299821703483929e+01 7.7517205861795546e+01 8.7111496371864860e+01 1 -1 1
3349 1 -6.2272413033500527e-02 8.6251416258879431e+01 8.2639535789717769e+01 8.8804390596834594e+01 0 0 0
82 3 5.2349611265963686e-02 7.7913601074016540e+01 8.3921595649897455e+01 8.6619087572448379e+01 0 0 0
1788 3 1.6292216049486202e-01 7.7345572616853616e+01 7.7903199826816220e+01 9.1229104566741412e+01 -1 0 0
1829 3 9.2777300009694724e-02 8.5298578190595506e+01 7.9453006111095746e+01 8.6719439456212854e+01 1 -1 1
2012 1 8.5131018933947922e-02 7.9915165540944770e+01 7.7114905970187266e+01 9.3714000037682638e+01 1 0 -1
924 2 -3.2349066548194821e-01 9.3436711834613760e+01 7.7265235794721320e+01 8.9524324608789158e+01 0 0 0
4215 2 -3.0993264108715696e-01 9.5102167478844990e+01 8.1697511770493563e+01 9.2422769094431246e+01 0 0 0
2811 1 2.5588209663940620e-01 8.9082316123044862e+01 8.9285278604745287e+01 9.0716181406396899e+01 0 0 -1
4219 1 2.6599616701763462e-01 9.5223539583560864e+01 8.0379186223835916e+01 9.2193421382603120e+01 0 0 0
899 2 -2.9560495763861167e-01 8.6349551954104271e+01 8.6226558295308067e+01 9.1960316032784704e+01 0 0 0
3554 2 -3.0297570401623769e-01 9.2482800874109842e+01 8.5851783030894225e+01 8.6590654300172332e+01 0 0 0
901 1 -5.3515701013919448e-02 8.6356660633496858e+01 8.2929439350913185e+01 9.3655765099957620e+01 0 0 0
4216 3 1.0700231060810639e-01 9.1948974858005542e+01 7.9592302234682123e+01 9.3218917248773877e+01 0 0 0
2794 1 -5.1040842119637310e-02 9.1346573365849409e+01 8.3699481050889901e+01 8.8850733801165674e+01 0 0 -1