# LAMMPS data file written by OVITO Basic 3.8.4

4 atoms
2 atom types

0.0 3.289103 xlo xhi
0.0 2.8484467537 ylo yhi
0.0 5.306821 zlo zhi
-1.6445515 0.0 0.0 xy xz yz

Masses

1 65.409  # Zn
2 15.9994  # O

Atoms  # charge

1 1 0.0 -1.6445514996e-06 1.8989654519 0.0029081379
2 1 0.0 1.6445531446 0.9494813017 2.6563186379
3 2 0.0 -1.6445514996e-06 1.8989654519 2.0153289566
4 2 0.0 1.6445531446 0.9494813017 4.6687394566
