# LAMMPS data file written by Ovito Basic 3.0.0-dev791
68 atoms
4 atom types
0.0 70.0 xlo xhi
0.0 35.0 ylo yhi
0.0 35.0 zlo zhi

Atoms  # charge

1 1 0.0 36.88608551 18.580457687 19.571777344
2 1 0.0 38.008682251 20.299072266 19.432296753
3 2 0.0 38.09236908 16.159719467 18.159660339
4 2 0.0 36.592674255 20.250431061 22.1788311
5 3 0.0 30.273792267 18.502101898 12.279491425
6 3 0.0 31.429750443 18.84292984 12.989871025
7 3 0.0 29.485729218 17.426265717 12.692292213
8 3 0.0 29.844802856 16.693058014 13.821825027
9 3 0.0 30.996732712 17.032770157 14.534612656
10 3 0.0 31.794654846 18.105150223 14.116926193
11 3 0.0 32.944343567 18.350795746 14.757843971
12 3 0.0 34.007980347 18.354858398 15.319975853
13 3 0.0 35.17118454 18.060920715 15.91427803
14 3 0.0 35.522621155 18.591213226 17.163537979
15 3 0.0 35.947284698 17.054841995 15.333250046
16 3 0.0 36.594070435 18.037202835 17.892484665
17 3 0.0 36.992576599 16.486188889 16.050748825
18 3 0.0 37.251022339 16.913320541 17.359615326
19 3 0.0 37.818069458 14.800563812 18.230031967
20 3 0.0 36.67332077 14.206087112 18.61713028
21 3 0.0 35.523841858 14.922012329 19.121400833
22 3 0.0 35.399486542 15.201709747 20.427118301
23 3 0.0 34.551967621 16.27141571 20.909914017
24 3 0.0 34.673530579 16.726881027 22.166904449
25 3 0.0 34.357574463 18.099340439 22.50012207
26 3 0.0 34.736801147 18.645484924 23.665248871
27 3 0.0 34.880767822 20.073371887 23.845262527
28 3 0.0 35.788108826 20.788795471 23.161565781
29 3 0.0 42.009944916 21.168796539 22.596750259
30 3 0.0 40.720863342 20.841194153 22.443202972
31 3 0.0 43.090656281 21.542707443 22.970357895
32 3 0.0 39.95860672 20.703298569 23.605115891
33 3 0.0 40.118160248 20.696992874 21.186491013
34 3 0.0 38.587238312 20.489439011 23.520374298
35 3 0.0 44.19430542 22.010118484 23.56744957
36 3 0.0 38.729984283 20.45652771 21.085744858
37 3 0.0 37.95916748 20.419569016 22.27003479
38 3 0.0 44.584671021 23.338708878 23.377971649
39 3 0.0 44.890266418 21.203556061 24.473491669
40 3 0.0 45.661876678 23.860431671 24.100294113
41 3 0.0 45.966499329 21.728311539 25.194494247
42 3 0.0 46.348438263 23.057130814 25.011095047
43 4 0.0 35.11125946 18.031801224 24.480857849
44 4 0.0 34.018291473 18.743053436 21.689691544
45 4 0.0 35.257408142 16.169622421 22.896503448
46 4 0.0 34.023521423 16.859104156 20.161388397
47 4 0.0 35.967250824 21.844823837 23.31634903
48 4 0.0 34.298530579 20.539794922 24.633428574
49 4 0.0 36.103469849 14.770410538 21.136631012
50 4 0.0 34.872699738 15.378458977 18.379613876
51 4 0.0 36.597576141 13.122538567 18.601455688
52 4 0.0 38.696975708 14.242285728 17.931760788
53 4 0.0 47.17578125 23.469074249 25.583963394
54 4 0.0 45.954914093 24.89847374 23.964464188
55 4 0.0 46.496238708 21.105098724 25.910640717
56 4 0.0 44.587459564 20.173046112 24.64484787
57 4 0.0 44.042053223 23.983787537 22.690826416
58 4 0.0 38.019809723 20.381601334 24.440031052
59 4 0.0 40.721767426 20.785823822 20.2853508
60 4 0.0 40.423408508 20.78459549 24.586519241
61 4 0.0 37.54058075 15.651514053 15.623622894
62 4 0.0 34.913299561 19.375360489 17.60931778
63 4 0.0 35.689094543 16.646614075 14.357595444
64 4 0.0 32.044311523 19.670375824 12.644290924
65 4 0.0 31.274942398 16.441493988 15.404449463
66 4 0.0 29.236507416 15.850658417 14.141557693
67 4 0.0 28.594974518 17.155729294 12.130422592
68 4 0.0 29.993497849 19.068464279 11.394911766
