# LAMMPS data file written by Ovito Basic 3.0.0-dev791
12 atoms
2 atom types
0.0 5.721362114 xlo xhi
0.0 5.721362114 ylo yhi
0.0 5.721362114 zlo zhi

Atoms  # charge

1 1 0.0 1.430340528 4.291021347 4.291021347
2 1 0.0 1.430340528 1.430340528 4.291021347
3 1 0.0 1.430340528 1.430340528 1.430340528
4 1 0.0 1.430340528 4.291021347 1.430340528
5 1 0.0 4.291021347 4.291021347 1.430340528
6 1 0.0 4.291021347 1.430340528 1.430340528
7 1 0.0 4.291021347 1.430340528 4.291021347
8 1 0.0 4.291021347 4.291021347 4.291021347
9 2 0.0 0.0 0.0 0.0
10 2 0.0 0.0 2.860681057 2.860681057
11 2 0.0 2.860681057 0.0 2.860681057
12 2 0.0 2.860681057 2.860681057 0.0
