#Input file for lammps
 
4050 atoms
3 atom types
 
0.0 175.5 xlo xhi
0.0 175.5 ylo yhi
0.0 175.5 zlo zhi
 
Masses
 
1 14
2 12
3 1.008
 
Atoms
 
      1 1 0      92.9799      77.1482      120.542
      2 2 0      92.6596      76.7552      119.049
      3 2 0      92.5352      75.3612      119.083
      4 2 0      92.7429      74.8594      120.427
      5 2 0      92.9955      75.9712      121.207
      6 3 0      92.3144      74.7415      118.227
      7 3 0      92.7072      73.8273       120.75
      8 3 0      93.1963      75.9573      122.272
      9 3 0      93.1554      78.1874      120.951
     10 1 0      92.2259      77.1947      116.544
     11 2 0       92.525      77.5711      117.936
     12 2 0      92.6505      79.0038      117.889
     13 2 0       92.445      79.4703      116.577
     14 2 0      92.1749      78.3643      115.699
     15 3 0      92.8704      79.6329      118.738
     16 3 0      92.4851      80.5074      116.277
     17 3 0      92.0592      76.1426       116.19
     18 1 0      91.8635      79.6192      113.449
     19 2 0      91.5663      79.2296      112.077
     20 2 0      91.4418      77.8036      112.118
     21 2 0      91.6498      77.3399      113.438
     22 2 0      91.9178      78.4456      114.307
     23 3 0      91.2218      77.1721       111.27
     24 3 0       91.611      76.3038      113.741
     25 3 0      92.0283      80.6759      113.795
     26 1 0      91.1276      79.6387       109.56
     27 2 0      91.4229      80.0402      110.926
     28 2 0      91.5437      81.4674       110.87
     29 2 0      91.3351      81.9177      109.547
     30 2 0      91.0699      80.8032      108.685
     31 3 0      91.7617      82.1076      111.711
     32 3 0      91.3715      82.9499      109.233
     33 3 0      90.9679      78.5791      109.222
     34 1 0      90.7553      82.0275      106.403
     35 2 0      90.4724      81.5976      105.069
     36 2 0      90.3531      80.1826      105.114
     37 2 0      90.5584      79.7397      106.451
     38 2 0      90.8156      80.8555      107.299
     39 3 0      90.1409      79.5412      104.271
     40 3 0      90.5249      78.7087       106.77
     41 3 0      90.9164      83.0964      106.718
     42 1 0      90.0376      81.8256      102.536
     43 2 0      90.3227      82.3923      103.858
     44 2 0      90.4561      83.8414      103.913
     45 2 0      90.2431      84.2845      102.618
     46 2 0      89.9918      83.0817      101.844
     47 3 0      90.6688      84.4502      104.776
     48 3 0      90.2564      85.3054      102.271
     49 3 0      89.7551      80.7805      102.219
     50 1 0      89.6545      84.4907      99.6847
     51 2 0      89.4075      83.9274      98.3725
     52 2 0      89.2777      82.4919      98.3002
     53 2 0      89.4696      82.0388      99.6043
     54 2 0      89.7066      83.2268      100.388
     55 3 0      89.0837       81.888      97.4276
     56 3 0      89.4556      81.0141      99.9425
     57 3 0      89.9911      85.5234      99.9918
     58 1 0      89.0455      84.1537      95.8122
     59 2 0      89.2763      84.7251      97.1236
     60 2 0      89.3676      86.1634      97.1998
     61 2 0      89.1375      86.6155      95.9015
     62 2 0      88.9292      85.4236      95.1143
     63 3 0      89.5513      86.7703      98.0726
     64 3 0      89.1069      87.6416      95.5685
     65 3 0      88.6057      83.1512      95.5395
     66 1 0      88.5027      86.8408      92.9762
     67 2 0      88.3134      86.2535      91.6508
     68 2 0      88.2463      84.8166      91.5753
     69 2 0      88.4412      84.3693      92.8828
     70 2 0      88.6191      85.5616        93.67
     71 3 0      88.1059      84.2069      90.6958
     72 3 0      88.4783      83.3433      93.2161
     73 3 0      89.1777      87.7222      93.1768
     74 1 0      87.9986      86.4438      89.0774
     75 2 0      88.2047      87.0344       90.397
     76 2 0      88.2937      88.4713      90.4648
     77 2 0      88.0949      88.9157      89.1582
     78 2 0      87.8984      87.7214      88.3761
     79 3 0       88.458      89.0833      91.3378
     80 3 0      88.0693      89.9399      88.8191
     81 3 0      87.3266       85.559      88.8805
     82 1 0      87.4967      89.1364      86.2324
     83 2 0      87.2776      88.5491      84.9143
     84 2 0       87.189      87.1115      84.8446
     85 2 0      87.3921      86.6664      86.1498
     86 2 0      87.5967      87.8601      86.9323
     87 3 0      87.0233      86.5007      83.9702
     88 3 0      87.4114      85.6425       86.488
     89 3 0      88.1372      90.0411      86.4388
     90 1 0      86.9268      88.7448       82.345
     91 2 0      87.1474      89.3316      83.6634
     92 2 0      87.2331      90.7689      83.7355
     93 2 0      87.0212      91.2162      82.4324
     94 2 0      86.8188      90.0232      81.6479
     95 3 0      87.4025      91.3789      84.6096
     96 3 0      86.9951      92.2412      82.0955
     97 3 0      86.2701      87.8513      82.1374
     98 1 0      86.4041      91.4417      79.5078
     99 2 0      86.1998      90.8507      78.1869
    100 2 0      86.1141      89.4129      78.1173
    101 2 0       86.317      88.9685      79.4227
    102 2 0      86.5118      90.1626      80.2064
    103 3 0      85.9523      88.8013      77.2431
    104 3 0       86.347      87.9445      79.7612
    105 3 0       87.082      92.3243      79.6965
    106 1 0      85.8908      91.0458      75.6125
    107 2 0      86.0938      91.6333      76.9353
    108 2 0      86.1818      93.0708      77.0085
    109 2 0      85.9787      93.5193      75.7049
    110 2 0      85.7799      92.3273      74.9183
    111 3 0      86.3423      93.6796      77.8851
    112 3 0      85.9507      94.5447      75.3698
    113 3 0      85.2117      90.1679      75.4096
    114 1 0      85.3456      93.7463      72.7839
    115 2 0      85.1373      93.1581      71.4632
    116 2 0      85.0499      91.7203      71.3924
    117 2 0      85.2615      91.2733      72.6952
    118 2 0      85.4619       92.467      73.4797
    119 3 0      84.8854      91.1105      70.5178
    120 3 0      85.2958      90.2487      73.0317
    121 3 0      86.0121      94.6356      72.9791
    122 1 0      84.8307      93.3571      68.8884
    123 2 0        85.03      93.9424      70.2123
    124 2 0      85.1141        95.38      70.2885
    125 2 0      84.9171      95.8293      68.9839
    126 2 0      84.7212      94.6382      68.1951
    127 3 0      85.2686      95.9859       71.167
    128 3 0      84.8887      96.8546      68.6499
    129 3 0      84.1616      92.4709       68.687
    130 1 0       84.286      96.0583      66.0596
    131 2 0      84.0772      95.4671      64.7388
    132 2 0      84.0004      94.0292       64.668
    133 2 0      84.2162      93.5841      65.9712
    134 2 0      84.4071      94.7789      66.7554
    135 3 0      83.8398      93.4173      63.7935
    136 3 0      84.2553      92.5598      66.3078
    137 3 0       84.963      96.9403      66.2541
    138 1 0      83.7556      95.6583      62.1652
    139 2 0      83.9592      96.2485      63.4876
    140 2 0      84.0361      97.6861       63.561
    141 2 0      83.8365      98.1325      62.2557
    142 2 0      83.6486      96.9394      61.4687
    143 3 0      84.1915      98.2965      64.4376
    144 3 0      83.8056      99.1577      61.9212
    145 3 0       83.075      94.7794       61.973
    146 1 0      83.2406      98.3639      59.3317
    147 2 0      83.0319      97.7763        58.01
    148 2 0      82.9547      96.3387      57.9351
    149 2 0      83.1591      95.8897      59.2388
    150 2 0      83.3489       97.082      60.0267
    151 3 0      82.7976      95.7313      57.0572
    152 3 0       83.192      94.8646      59.5736
    153 3 0      83.9213      99.2407      59.5315
    154 1 0      82.6993      97.9651      55.4383
    155 2 0      82.9075      98.5569      56.7585
    156 2 0      82.9843      99.9946      56.8288
    157 2 0      82.7767      100.439      55.5238
    158 2 0      82.5882      99.2445      54.7396
    159 3 0      83.1412      100.607      57.7033
    160 3 0      82.7426      101.463       55.186
    161 3 0       82.023      97.0824      55.2476
    162 3 0      82.3733      99.3205      53.6737
    163 1 0      134.959      89.5808       157.67
    164 2 0      135.131      90.7632      156.642
    165 2 0      134.755      91.9011      157.365
    166 2 0      134.373      91.5474      158.718
    167 2 0      134.524      90.1768      158.803
    168 3 0      134.749      92.9067      156.972
    169 3 0       134.04       92.219      159.498
    170 3 0      134.324      89.5774      159.684
    171 3 0      135.159      88.4829      157.488
    172 1 0       135.71      91.8347      154.367
    173 2 0      135.553      90.7243      155.321
    174 2 0      135.942      89.5613      154.568
    175 2 0      136.309      89.9267      153.259
    176 2 0      136.177      91.3483      153.091
    177 3 0      135.952      88.5525       154.95
    178 3 0       136.64      89.2376      152.496
    179 3 0      135.497      92.9118      154.602
    180 1 0      136.928      91.5973      150.619
    181 2 0      137.079       92.708      149.688
    182 2 0      136.691      93.8678      150.433
    183 2 0      136.323      93.4954      151.747
    184 2 0      136.457      92.0791      151.909
    185 3 0       136.68      94.8784      150.052
    186 3 0      135.991       94.182      152.512
    187 3 0      137.145      90.5215      150.376
    188 1 0      137.652      93.8113      147.419
    189 2 0      137.507      92.6951       148.34
    190 2 0      137.899      91.5431      147.582
    191 2 0      138.263      91.9278      146.272
    192 2 0      138.124      93.3466       146.12
    193 3 0      137.915      90.5294      147.953
    194 3 0      138.596      91.2509        145.5
    195 3 0       137.43       94.884       147.67
    196 1 0      138.867      93.6375      143.637
    197 2 0       138.99      94.7564      142.755
    198 2 0      138.601       95.904      143.497
    199 2 0      138.243      95.5074      144.816
    200 2 0       138.39      94.0968      144.957
    201 3 0      138.579      96.9177      143.124
    202 3 0      137.908      96.1793      145.592
    203 3 0      139.091      92.5691      143.362
    204 1 0      139.495      96.0124      140.559
    205 2 0      139.419      94.7894      141.364
    206 2 0      139.806      93.5585      140.689
    207 2 0      140.171      93.9362      139.406
    208 2 0      139.987      95.3759       139.37
    209 3 0      139.815      92.5605      141.095
    210 3 0      140.522      93.2924      138.616
    211 3 0      139.393      97.0991      140.844
    212 1 0      140.816      95.4623      136.907
    213 2 0      140.858      96.6662      136.101
    214 2 0      140.472       97.894      136.755
    215 2 0      140.123      97.5262      138.053
    216 2 0      140.316      96.0971      138.108
    217 3 0      140.447      98.8874      136.335
    218 3 0      139.772      98.1777      138.839
    219 3 0      140.863      94.3746       136.61
    220 1 0      141.295      97.9159      133.869
    221 2 0      141.271      96.7108      134.673
    222 2 0      141.693      95.4903      134.029
    223 2 0      142.078      95.8673      132.743
    224 2 0      141.857      97.2925      132.682
    225 3 0      141.729      94.4975      134.449
    226 3 0      142.471      95.2253       131.97
    227 3 0      141.354      98.9925      134.201
    228 1 0      142.772      97.3879       130.25
    229 2 0      142.752      98.6006      129.434
    230 2 0      142.308      99.8124      130.073
    231 2 0      141.958      99.4374      131.371
    232 2 0      142.207      98.0209      131.438
    233 3 0       142.23      100.798       129.64
    234 3 0      141.558      100.077      132.143
    235 3 0      142.451      96.3754       129.87
    236 1 0      143.132      99.8719      127.198
    237 2 0      143.138      98.6546      128.005
    238 2 0      143.562      97.4402      127.355
    239 2 0      143.915      97.8182       126.06
    240 2 0      143.682      99.2393      126.002
    241 3 0      143.618       96.449      127.777
    242 3 0      144.303      97.1795      125.281
    243 3 0       143.45      100.884      127.582
    244 1 0      144.574      99.3319      123.561
    245 2 0      144.581       100.55      122.757
    246 2 0      144.156      101.766      123.406
    247 2 0        143.8      101.387      124.699
    248 2 0      144.024      99.9643      124.756
    249 3 0      144.102      102.757      122.982
    250 3 0      143.417      102.028      125.478
    251 3 0      144.292      98.3081      123.182
    252 1 0      144.997      101.825      120.529
    253 2 0      144.988      100.607      121.334
    254 2 0      145.415      99.3913      120.688
    255 2 0      145.781      99.7692      119.397
    256 2 0      145.554      101.192      119.338
    257 3 0      145.466      98.3996      121.111
    258 3 0       146.17      99.1288       118.62
    259 3 0      145.297      102.846      120.905
    260 1 0      146.459      101.284      116.901
    261 2 0      146.451      102.502      116.093
    262 2 0      146.024      103.717      116.742
    263 2 0      145.668      103.338      118.035
    264 2 0      145.901      101.917      118.094
    265 3 0      145.966      104.708      116.318
    266 3 0      145.275      103.976      118.812
    267 3 0      146.135      100.276       116.51
    268 1 0      146.828      103.768      113.853
    269 2 0      146.836      102.552      114.665
    270 2 0      147.261      101.335      114.019
    271 2 0      147.618       101.71      112.726
    272 2 0      147.389      103.132      112.663
    273 3 0      147.319      100.346      114.446
    274 3 0      148.009      101.069       111.95
    275 3 0      147.154       104.78       114.23
    276 1 0      148.312      103.226      110.235
    277 2 0      148.309      104.443      109.427
    278 2 0      147.884      105.659      110.074
    279 2 0      147.518      105.281      111.365
    280 2 0      147.747      103.858      111.424
    281 3 0      147.828      106.649       109.65
    282 3 0      147.122      105.919       112.14
    283 3 0      148.001      102.213      109.848
    284 1 0      148.685      105.705      107.184
    285 2 0      148.696      104.492      107.998
    286 2 0      149.124      103.274      107.356
    287 2 0      149.477      103.647       106.06
    288 2 0      149.245      105.069      105.995
    289 3 0      149.187      102.288      107.787
    290 3 0      149.868      103.005      105.286
    291 3 0      148.999       106.72      107.564
    292 1 0      150.169      105.163      103.565
    293 2 0      150.165      106.382      102.758
    294 2 0       149.73      107.595      103.404
    295 2 0      149.361      107.215      104.693
    296 2 0      149.599      105.794      104.754
    297 3 0       149.67      108.586       102.98
    298 3 0      148.961      107.851      105.467
    299 3 0      149.846      104.153       103.18
    300 1 0      150.553      107.655      100.524
    301 2 0      150.561      106.437      101.333
    302 2 0      150.996      105.223       100.69
    303 2 0       151.35      105.599      99.3952
    304 2 0       151.11      107.019       99.331
    305 3 0       151.06      104.234      101.117
    306 3 0      151.744      104.959      98.6212
    307 3 0       150.88      108.663       100.91
    308 1 0      152.011      107.103      96.8928
    309 2 0      152.008      108.319      96.0834
    310 2 0      151.573      109.534      96.7257
    311 2 0      151.214       109.16      98.0194
    312 2 0      151.452      107.739      98.0843
    313 3 0      151.512      110.522      96.2961
    314 3 0      150.818      109.799      98.7931
    315 3 0      151.682      106.092      96.5136
    316 1 0      152.405      109.596      93.8536
    317 2 0      152.409      108.377      94.6598
    318 2 0      152.845      107.164      94.0136
    319 2 0      153.205      107.544      92.7215
    320 2 0      152.966      108.964      92.6606
    321 3 0      152.908      106.174      94.4377
    322 3 0      153.602      106.907      91.9459
    323 3 0      152.727      110.605      94.2426
    324 3 0      153.201      109.518       91.752
    325 1 0      8.05243       165.34      121.722
    326 2 0      9.29517      165.687      120.817
    327 2 0      9.39805       167.08      120.898
    328 2 0      8.35997      167.623      121.751
    329 2 0      7.62548      166.537      122.185
    330 3 0      10.1479      167.673      120.396
    331 3 0      8.19538      168.664      121.996
    332 3 0      6.76621      166.583      122.844
    333 3 0      7.62405      164.315       121.93
    334 1 0      11.2773       165.17      119.248
    335 2 0      10.1183      164.837      120.092
    336 2 0      10.0218      163.404      120.002
    337 2 0      11.0385      162.898       119.17
    338 2 0      11.8509      163.975      118.675
    339 3 0      9.27767      162.802      120.499
    340 3 0      11.1839      161.852      118.939
    341 3 0      11.6628       166.21      119.075
    342 1 0      13.5527      162.652       117.23
    343 2 0      14.6981      162.999      116.399
    344 2 0      14.7969      164.425      116.485
    345 2 0      13.7732      164.929      117.321
    346 2 0       12.968      163.851      117.811
    347 3 0       15.541       165.03      115.988
    348 3 0      13.6251      165.973      117.553
    349 3 0      13.1743      161.607      117.398
    350 1 0      16.6923      162.512      114.825
    351 2 0      15.5525      162.153      115.653
    352 2 0      15.4663      160.726      115.558
    353 2 0      16.4927      160.235       114.72
    354 2 0      17.2911      161.322      114.233
    355 3 0      14.7278      160.112      116.051
    356 3 0      16.6501      159.194      114.481
    357 3 0       17.062      163.561      114.659
    358 1 0      19.0172      160.028      112.767
    359 2 0      20.1273      160.416      111.953
    360 2 0      20.2197      161.832      112.039
    361 2 0      19.1865      162.315      112.889
    362 2 0       18.403      161.227      113.371
    363 3 0      20.9548      162.446       111.54
    364 3 0      19.0229      163.355       113.13
    365 3 0      18.6621       158.97      112.914
    366 1 0       22.134      160.111       110.36
    367 2 0      21.0271      159.585      111.166
    368 2 0      20.8568      158.139      111.146
    369 2 0      21.8685      157.656      110.331
    370 2 0      22.5996      158.834      109.899
    371 3 0      20.1086      157.557      111.658
    372 3 0      22.0654      156.625      110.083
    373 3 0      22.5805      161.144      110.293
    374 1 0      24.2568      157.359      108.542
    375 2 0      25.3288      157.882      107.719
    376 2 0      25.5076      159.314      107.724
    377 2 0      24.5062      159.807      108.559
    378 2 0      23.7789      158.644      109.008
    379 3 0      26.2479       159.89      107.192
    380 3 0      24.3154      160.841      108.801
    381 3 0      23.7769      156.338      108.566
    382 1 0      27.2994      157.577      106.057
    383 2 0      26.2399      157.046      106.891
    384 2 0      26.0872      155.611      106.915
    385 2 0      27.1131      155.119       106.11
    386 2 0      27.8212      156.286      105.639
    387 3 0      25.3542      155.032      107.454
    388 3 0      27.3336      154.084      105.901
    389 3 0      27.8326      158.569      106.128
    390 1 0      29.5304      154.803      104.358
    391 2 0      30.5687       155.35      103.486
    392 2 0      30.7029      156.783      103.447
    393 2 0      29.6969      157.271      104.282
    394 2 0      29.0115      156.103      104.773
    395 3 0      31.4081      157.366      102.873
    396 3 0      29.4714      158.306      104.486
    397 3 0      28.8728      153.932      104.074
    398 1 0      32.5138      155.081      101.782
    399 2 0      31.4668      154.531      102.639
    400 2 0      31.3213      153.097      102.657
    401 2 0      32.3297      152.613      101.825
    402 2 0      33.0256      153.782      101.351
    403 3 0      30.6026      152.513       103.21
    404 3 0      32.5505      151.579      101.609
    405 3 0      33.1666      155.956      102.067
    406 1 0      34.7201      152.302      100.049
    407 2 0      35.7757      152.848      99.2017
    408 2 0      35.9222      154.283      99.1814
    409 2 0      34.9115      154.768       100.01
    410 2 0      34.2093      153.599      100.479
    411 3 0      36.6429      154.866      98.6289
    412 3 0       34.696      155.801      100.229
    413 3 0      34.0839      151.407      99.7926
    414 1 0      37.7448      152.574      97.5253
    415 2 0      36.6878      152.028      98.3716
    416 2 0      36.5419      150.594      98.3956
    417 2 0      37.5577      150.107      97.5747
    418 2 0      38.2596      151.274      97.1025
    419 3 0      35.8188      150.011      98.9455
    420 3 0      37.7775      149.072      97.3606
    421 3 0      38.3936      153.457      97.7916
    422 1 0      39.9613       149.79      95.8118
    423 2 0      41.0079      150.341      94.9527
    424 2 0      41.1521      151.775      94.9306
    425 2 0      40.1414      152.259      95.7593
    426 2 0      39.4458       151.09       96.236
    427 3 0      41.8698      152.359      94.3756
    428 3 0      39.9177      153.293      95.9719
    429 3 0      39.3096      148.917      95.5172
    430 1 0      42.9492      150.067      93.2447
    431 2 0      41.9024       149.52       94.106
    432 2 0      41.7541      148.086      94.1292
    433 2 0      42.7636      147.598      93.3021
    434 2 0      43.4642      148.765       92.826
    435 3 0      41.0359      147.505      94.6869
    436 3 0      42.9835      146.563      93.0908
    437 3 0      43.6112      150.935      93.5296
    438 1 0      45.1767       147.28      91.5526
    439 2 0       46.226      147.827      90.6965
    440 2 0      46.3723      149.262      90.6746
    441 2 0       45.357      149.749      91.4954
    442 2 0      44.6565       148.58       91.969
    443 3 0      47.0922      149.844      90.1211
    444 3 0      45.1314      150.783      91.7037
    445 3 0      44.5289        146.4      91.2706
    446 1 0      48.1657       147.55      88.9866
    447 2 0      47.1211      147.005      89.8511
    448 2 0      46.9736      145.571      89.8793
    449 2 0      47.9793      145.082      89.0473
    450 2 0      48.6791      146.248      88.5676
    451 3 0      46.2586      144.993      90.4422
    452 3 0      48.1987      144.047       88.837
    453 3 0      48.8195      148.426      89.2658
    454 1 0       50.393      144.762       87.294
    455 2 0      51.4428      145.313      86.4381
    456 2 0      51.5812      146.747      86.4091
    457 2 0      50.5624      147.232      87.2275
    458 2 0      49.8693      146.063      87.7072
    459 3 0      52.2981      147.332      85.8531
    460 3 0      50.3332      148.267      87.4327
    461 3 0       49.738       143.89      87.0044
    462 1 0       53.393      145.043       84.739
    463 2 0      52.3461      144.493      85.5996
    464 2 0      52.2058      143.059      85.6304
    465 2 0      53.2139      142.573      84.7997
    466 2 0      53.9066      143.741      84.3159
    467 3 0      51.4914      142.476      86.1915
    468 3 0      53.4357      141.538      84.5906
    469 3 0      54.0491      145.912      85.0329
    470 1 0      55.6012      142.251      83.0232
    471 2 0      56.6515      142.798      82.1665
    472 2 0      56.7929      144.232      82.1348
    473 2 0      55.7824      144.721      82.9611
    474 2 0      55.0877      143.554      83.4443
    475 3 0      57.5094      144.812       81.574
    476 3 0       55.559      145.756       83.169
    477 3 0      54.9401      141.384      82.7348
    478 1 0      58.6087       142.53      80.4761
    479 2 0      57.5598      141.979      81.3321
    480 2 0      57.4217      140.545      81.3607
    481 2 0      58.4356       140.06      80.5354
    482 2 0      59.1269       141.23      80.0541
    483 3 0      56.7075      139.959      81.9192
    484 3 0      58.6619      139.026       80.326
    485 3 0      59.2606      143.403      80.7682
    486 3 0      59.9956      141.121      79.4048
    487 1 0      143.769      104.541      150.419
    488 2 0      142.661      105.635      150.665
    489 2 0      141.481      104.897      150.817
    490 2 0      141.743      103.477       150.69
    491 2 0      143.101      103.366       150.46
    492 3 0      140.507      105.324      151.002
    493 3 0      141.023      102.672      150.762
    494 3 0      143.638      102.436      150.317
    495 3 0      144.873      104.714      150.247
    496 1 0      141.746       108.03      150.956
    497 2 0      142.787      107.015      150.725
    498 2 0      143.994      107.783      150.572
    499 2 0      143.718      109.158      150.698
    500 2 0      142.315      109.357       150.94
    501 3 0      144.972      107.368      150.386
    502 3 0      144.454      109.945      150.623
    503 3 0      140.659      107.802      151.122
    504 1 0      142.232      111.945      151.107
    505 2 0      141.189      112.937      151.337
    506 2 0      139.985      112.176      151.489
    507 2 0      140.268      110.796      151.361
    508 2 0      141.666      110.604       151.12
    509 3 0      139.005       112.59      151.674
    510 3 0      139.534      110.007      151.435
    511 3 0      143.318      112.182      150.942
    512 1 0      140.242      115.326      151.632
    513 2 0      141.291      114.346      151.404
    514 2 0      142.489       115.12      151.254
    515 2 0      142.193      116.496      151.383
    516 2 0      140.791      116.676      151.622
    517 3 0      143.473      114.716       151.07
    518 3 0      142.918      117.292      151.311
    519 3 0      139.157       115.08      151.792
    520 1 0      140.665      119.276      151.791
    521 2 0      139.608      120.214      152.009
    522 2 0      138.415      119.455      152.156
    523 2 0      138.724      118.072      152.031
    524 2 0      140.121      117.904        151.8
    525 3 0      137.429       119.86      152.334
    526 3 0      138.004      117.271        152.1
    527 3 0      141.746      119.547      151.628
    528 1 0      138.497      122.524      152.303
    529 2 0      139.666      121.667      152.079
    530 2 0      140.939      122.357      151.923
    531 2 0      140.651      123.705      152.058
    532 2 0      139.218      123.764      152.289
    533 3 0      141.907      121.918      151.746
    534 3 0      141.349      124.526      152.007
    535 3 0      137.434      122.274      152.587
    536 1 0      139.314      126.355      152.484
    537 2 0      138.154      127.204       152.67
    538 2 0      136.883      126.536      152.821
    539 2 0      137.167      125.176      152.708
    540 2 0      138.592      125.101      152.492
    541 3 0      135.915      126.983      152.979
    542 3 0      136.461      124.361      152.759
    543 3 0      140.362      126.604      152.146
    544 1 0      137.028      129.532      152.889
    545 2 0      138.195       128.69      152.719
    546 2 0      139.469      129.358      152.606
    547 2 0      139.187      130.715      152.758
    548 2 0      137.758      130.788      152.945
    549 3 0       140.44      128.912      152.459
    550 3 0      139.896      131.528      152.752
    551 3 0      136.023      129.275      153.332
    552 1 0       137.87      133.371       153.23
    553 2 0      136.683      134.214      153.358
    554 2 0      135.411      133.545      153.447
    555 2 0      135.701      132.185      153.331
    556 2 0      137.131      132.113      153.174
    557 3 0      134.434      133.993      153.551
    558 3 0      134.993      131.371       153.33
    559 3 0      138.738      133.614      152.551
    560 1 0      135.521      136.533      153.531
    561 2 0      136.708      135.695      153.385
    562 2 0      137.976       136.37      153.274
    563 2 0      137.684      137.728      153.394
    564 2 0      136.255      137.795       153.57
    565 3 0      138.952      135.928      153.146
    566 3 0      138.388      138.546      153.383
    567 3 0      134.652      136.285      154.207
    568 1 0      136.363       140.38       153.83
    569 2 0       135.18      141.219      153.988
    570 2 0       133.91      140.546      154.099
    571 2 0      134.201      139.188      153.975
    572 2 0      135.629       139.12      153.791
    573 3 0      132.934       140.99      154.228
    574 3 0      133.496      138.372      153.992
    575 3 0      137.253      140.632      153.185
    576 1 0      134.024      143.539      154.197
    577 2 0      135.207      142.699      154.037
    578 2 0      136.478      143.371      153.929
    579 2 0       136.19      144.728      154.063
    580 2 0      134.761      144.799      154.244
    581 3 0      137.453      142.926      153.796
    582 3 0      136.896      145.544      154.052
    583 3 0      133.142      143.295      154.857
    584 1 0      134.874      147.383      154.517
    585 2 0      133.686      148.222      154.661