# LAMMPS data file written by Ovito 3.0.0-dev419
65 atoms
5 atom types
0.0 20.0 xlo xhi
0.0 20.0 ylo yhi
0.0 20.0 zlo zhi

Atoms # charge

1 1 0.0 5.70637989 9.978320122 5.278120041
2 1 0.0 5.126200199 9.498399734 6.771299839
3 1 0.0 7.663999557 12.741939545 8.424059868
4 1 0.0 6.832900047 13.256818771 13.099240303
5 1 0.0 10.374019623 7.314320087 7.184219837
6 1 0.0 7.803480148 13.167140961 11.867679596
7 1 0.0 11.233340263 8.578100204 7.500219822
8 1 0.0 12.712181091 9.011839867 12.36756134
9 1 0.0 11.543279648 9.997019768 12.109160423
10 1 0.0 8.959420204 12.163360596 12.211940765
11 1 0.0 10.677780151 9.129980087 8.890299797
12 1 0.0 11.488859177 10.354160309 9.331419945
13 1 0.0 9.85297966 11.958940506 10.985079765
14 1 0.0 12.630960464 12.369020462 11.132780075
15 1 0.0 12.673700333 13.371459961 12.296779633
16 1 0.0 13.982099533 14.267120361 12.258919716
17 1 0.0 12.356539726 8.071479797 13.57075882
18 1 0.0 13.572520256 7.120759964 13.747999191
19 1 0.0 13.918741226 15.171779633 13.487039566
20 2 0.0 4.285779953 8.741259575 6.57281971
21 2 0.0 10.77670002 6.952480316 6.227359772
22 2 0.0 10.463439941 6.440800667 8.032059669
23 2 0.0 13.704380035 6.546700001 12.791358948
24 2 0.0 4.588140011 10.375558853 7.229459763
25 2 0.0 6.93682003 8.4854002 6.648139954
26 2 0.0 6.76639986 9.4124403 8.159540176
27 2 0.0 9.216039658 7.570419788 7.045279503
28 2 0.0 7.201219559 12.746761322 10.981180191
29 2 0.0 11.110580444 9.39620018 6.677320004
30 2 0.0 12.354880333 8.294540405 7.545820236
31 2 0.0 8.49382019 11.224160194 12.568819046
32 2 0.0 9.585920334 12.62471962 13.07281971
33 2 0.0 9.595740318 9.421159744 8.728460312
34 2 0.0 10.738380432 8.399160385 9.677319527
35 2 0.0 12.887539864 8.377380371 11.460499763
36 2 0.0 12.676859856 12.778079987 13.233039856
37 2 0.0 10.596879959 9.356080055 11.931619644
38 2 0.0 11.373600006 10.695520401 12.967559814
39 2 0.0 9.200559616 11.535960197 10.146219254
40 2 0.0 10.133219719 12.991800308 10.512039185
41 2 0.0 11.321000099 11.177881241 8.589420319
42 2 0.0 12.58891964 10.051519394 9.288539886
43 2 0.0 12.57816124 12.893520355 10.147100449
44 2 0.0 13.733940125 9.609840393 12.474960327
45 2 0.0 13.598079681 11.788480759 11.020719528
46 2 0.0 5.970620155 14.013641357 12.891639709
47 2 0.0 8.1770401 14.14538002 11.586259842
48 2 0.0 11.762639999 13.995679855 12.273859978
49 2 0.0 14.945340157 13.667900085 12.217199326
50 2 0.0 13.967900276 14.938540459 11.261320114
51 2 0.0 13.349419594 6.37830019 14.66508007
52 2 0.0 6.368860245 12.277039528 13.265239716
53 2 0.0 11.439479828 7.429540157 13.43225956
54 2 0.0 12.181940079 8.761859894 14.50924015
55 2 0.0 14.50135994 7.634500504 13.9083004
56 2 0.0 7.399200439 13.64634037 14.036279678
57 2 0.0 12.964839935 15.785619736 13.49725914
58 2 0.0 13.979579926 14.595040321 14.531719208
59 2 0.0 14.75232029 15.898920059 13.490320206
60 3 0.0 6.248239994 8.853099823 7.424660206
61 4 0.0 5.024559975 10.737520218 4.574299812
62 4 0.0 6.770659447 9.443380356 4.932559967
63 4 0.0 7.29279995 11.675180435 8.861980438
64 4 0.0 8.092240334 13.789560318 8.070380211
65 5 0.0 11.39455986 11.199640274 10.857980728
