#Input file for lammps
 
2650 atoms
3 atom types
 
0.0 163.3 xlo xhi
0.0 163.3 ylo yhi
0.0 163.3 zlo zhi
 
Masses
 
1 12
2 14
3 1.008
 
Atoms
 
      1 1 0      92.5798      88.4244      100.418
      2 1 0      92.4725      89.5876      101.189
      3 1 0      91.5229      90.5768      100.785
      4 2 0      90.7337      90.4653      99.7229
      5 3 0      93.2783      87.6495      100.679
      6 3 0       93.089      89.7346      102.065
      7 3 0      91.4053      91.4994      101.356
      8 1 0      91.8064      87.1389      98.4636
      9 1 0      91.7309      88.2952      99.2688
     10 1 0      90.7744      89.3762      98.9269
     11 2 0      89.9861      89.2436      97.8499
     12 3 0      92.4918      86.3467       98.695
     13 1 0      90.9935       85.921       96.513
     14 1 0      90.9501      87.0591      97.3437
     15 1 0      90.0099      88.1691      97.0445
     16 2 0      89.2074      88.0682      95.9746
     17 3 0       91.668      85.1125       96.718
     18 1 0      90.1343       84.759      94.5485
     19 1 0      90.1242      85.8779      95.4054
     20 1 0       89.201      87.0118      95.1458
     21 2 0      88.3816      86.9499      94.0853
     22 3 0      90.7966      83.9341      94.7258
     23 1 0      89.2239      83.6576      92.5679
     24 1 0      89.2495      84.7553      93.4524
     25 1 0      88.3445      85.9124      93.2333
     26 2 0      87.5085      85.8923      92.1847
     27 3 0      89.8727      82.8163      92.7157
     28 1 0      88.2596      82.6214      90.5712
     29 1 0      88.3234      83.6951      91.4844
     30 1 0       87.439      84.8761      91.3092
     31 2 0      86.5863      84.9004      90.2746
     32 3 0      88.8929      81.7636      90.6873
     33 1 0      87.2372      81.6577      88.5592
     34 1 0      87.3431      82.7032      89.5025
     35 1 0      86.4821      83.9085      89.3752
     36 2 0      85.6126      83.9817      88.3577
     37 3 0      87.8526      80.7829      88.6399
     38 1 0      86.1502      80.7779      86.5326
     39 1 0       86.304      81.7889      87.5082
     40 1 0      85.4698      83.0188      87.4332
     41 2 0      84.5828      83.1474      86.4371
     42 3 0      86.7437      79.8851      86.5722
     43 1 0      84.9941      79.9961      84.4967
     44 1 0      85.1995      80.9664      85.5045
     45 1 0      84.3962      82.2199      85.4858
     46 2 0      83.4914      82.4095      84.5153
     47 3 0      85.5614      79.0857      84.4902
     48 1 0      83.7705      79.3214      82.4605
     49 1 0      84.0266      80.2481      83.4971
     50 1 0      83.2574      81.5228      83.5371
     51 2 0      82.3371      81.7734      82.5948
     52 3 0      84.3103      78.3959      82.4085
     53 1 0      82.4859      78.7533      80.4321
     54 1 0       82.789      79.6368       81.493
     55 1 0      82.0562      80.9293      81.5919
     56 2 0      81.1235       81.237      80.6785
     57 3 0       82.999      77.8162      80.3379
     58 1 0      81.1465      78.2881      78.4157
     59 1 0      81.4938      79.1282      79.4976
     60 1 0      80.7986      80.4353      79.6542
     61 2 0      79.8563      80.7966      78.7707
     62 3 0      81.6329      77.3417      78.2814
     63 1 0      79.7558      77.9236      76.4141
     64 1 0      80.1463       78.719      77.5147
     65 1 0      79.4897      80.0375      77.7279
     66 2 0        78.54      80.4509      76.8757
     67 3 0      80.2147      76.9699      76.2401
     68 1 0      78.3164      77.6598      74.4307
     69 1 0      78.7496      78.4086      75.5479
     70 1 0      78.1327      79.7358      75.8169
     71 2 0      77.1775      80.2004      74.9977
     72 3 0      78.7465      76.7009       74.217
     73 1 0      76.8311      77.4975      72.4694
     74 1 0      77.3064      78.1979       73.601
     75 1 0      76.7304       79.531      73.9251
     76 2 0      75.7717      80.0461      73.1409
     77 3 0      77.2313      76.5352      72.2162
     78 1 0      75.3032      77.4369      70.5346
     79 1 0      75.8195      78.0876      71.6781
     80 1 0      75.2857      79.4238      72.0568
     81 2 0      74.3257      79.9884      71.3094
     82 3 0      75.6724      76.4735      70.2421
     83 1 0      73.7361      77.4783      68.6305
     84 1 0       74.292      78.0781      69.7834
     85 1 0      73.8018      79.4145      70.2162
     86 2 0      72.8424      80.0277      69.5073
     87 3 0      74.0735      76.5157      68.2994
     88 1 0      72.1334      77.6216      66.7617
     89 1 0      72.7276      78.1693      67.9214
     90 1 0       72.282      79.5032      68.4073
     91 2 0      71.3253      80.1638      67.7385
     92 3 0      72.4383      76.6619      66.3927
     93 1 0      70.4988      77.8663      64.9322
     94 1 0      71.1298      78.3611      66.0963
     95 1 0      70.7297      79.6896      66.6343
     96 2 0      69.7779      80.3963      66.0073
     97 3 0      70.7705      76.9117      64.5261
     98 1 0       68.836       78.212      63.1463
     99 1 0      69.5023       78.653      64.3122
    100 1 0      69.1485      79.9732      64.9009
    101 2 0      68.2034      80.7247      64.3172
    102 3 0      69.0742      77.2643      62.7043
    103 1 0      67.8488      79.0441      62.5732
    104 1 0      67.5417      80.3535      63.2111
    105 3 0      67.3142      78.7372      61.6742
    106 3 0      66.7833      81.0094      62.7838
    107 1 0      108.586      123.899      3.95585
    108 1 0      109.582      124.873      3.82178
    109 1 0      109.948      125.625      4.98203
    110 2 0      109.404      125.459      6.18171
    111 3 0      108.274      123.307      3.11436
    112 3 0      110.061      125.053      2.86947
    113 3 0       110.72      126.394      4.92382
    114 1 0      106.985      122.742      5.42827
    115 1 0      107.993      123.713      5.24865
    116 1 0      108.438      124.541      6.39603
    117 2 0      107.876      124.358      7.59975
    118 3 0       106.65      122.133      4.61051
    119 1 0      105.424      121.638      6.94218
    120 1 0      106.433      122.597      6.71955
    121 1 0      106.913      123.451       7.8354
    122 2 0      106.372      123.293      9.05218
    123 3 0      105.068      121.015      6.14488
    124 1 0      103.887      120.577      8.51085
    125 1 0      104.897      121.523      8.24367
    126 1 0      105.409      122.399       9.3282
    127 2 0      104.893      122.273      10.5603
    128 3 0      103.509      119.939       7.7357
    129 1 0      102.376      119.563      10.1402
    130 1 0      103.387      120.494      9.82536
    131 1 0       103.93      121.392      10.8771
    132 2 0      103.443      121.299      12.1233
    133 3 0      101.976       118.91       9.3893
    134 1 0      100.895        118.6      11.8332
    135 1 0      101.905      119.514      11.4676
    136 1 0      102.482      120.433      12.4828
    137 2 0      102.026      120.377      13.7425
    138 3 0      100.471      117.931      11.1093
    139 1 0      99.4462      117.692      13.5942
    140 1 0      100.455      118.586      13.1731
    141 1 0      101.067      119.528      14.1474
    142 2 0      100.645      119.511      15.4198
    143 3 0       98.997      117.008      12.9011
    144 1 0      98.0378       116.85      15.4297
    145 1 0       99.042      117.719      14.9464
    146 1 0       99.691      118.684      15.8746
    147 2 0      99.3104      118.713      17.1591
    148 3 0        97.56      116.148      14.7738
    149 1 0      96.6797      116.084      17.3433
    150 1 0      97.6759      116.923      16.7935
    151 1 0      98.3636      117.911        17.67
    152 2 0      98.0284       117.99      18.9654
    153 3 0      96.1711      115.365      16.7307
    154 1 0      95.3808      115.403      19.3301
    155 1 0       96.366       116.21       18.716
    156 1 0       97.092      117.219      19.5365
    157 2 0      96.8035      117.347      20.8395
    158 3 0      94.8432      114.668       18.762
    159 1 0      94.1448      114.806      21.3803
    160 1 0      95.1169      115.581      20.7076
    161 1 0      95.8796      116.608      21.4694
    162 2 0      95.6359      116.784      22.7765
    163 3 0      93.5816       114.06      20.8549
    164 1 0      92.9712      114.291      23.4861
    165 1 0      93.9288      115.034      22.7586
    166 1 0      94.7258      116.076       23.461
    167 2 0      94.5254      116.297      24.7688
    168 3 0      92.3847      113.535      23.0027
    169 1 0      91.8604      113.857      25.6427
    170 1 0      92.8016      114.566      24.8623
    171 1 0      93.6306      115.622      25.5045
    172 2 0      93.4734      115.886      26.8102
    173 3 0      91.2518      113.092       25.202
    174 1 0      90.8137      113.504      27.8462
    175 1 0      91.7366      114.177       27.014
    176 1 0      92.5957      115.244      27.5952
    177 2 0       92.482      115.551       28.896
    178 3 0      90.1842      112.732      27.4495
    179 1 0      89.8334      113.233      30.0922
    180 1 0       90.736      113.868      29.2098
    181 1 0      91.6234      114.944      29.7287
    182 2 0      91.5535      115.293      31.0219
    183 3 0      89.1841      112.455      29.7407
    184 1 0      88.9217      113.044      32.3757
    185 1 0       89.802      113.641      31.4451
    186 1 0      90.7159      114.723      31.9005
    187 2 0      90.6903      115.114      33.1832
    188 3 0      88.2539      112.262      32.0706
    189 1 0      88.0805      112.937      34.6917
    190 1 0      88.9368      113.495      33.7152
    191 1 0      89.8754      114.581      34.1057
    192 2 0      89.8942      115.013      35.3754
    193 3 0      87.3956      112.153      34.4336
    194 1 0      87.3119      112.914      37.0349
    195 1 0      88.1424      113.431      36.0147
    196 1 0      89.1036      114.519      36.3397
    197 2 0       89.167      114.991      37.5933
    198 3 0      86.6114      112.129      36.8244
    199 1 0      86.6175      112.973      39.3999
    200 1 0      87.4206      113.449      38.3383
    201 1 0      88.4025      114.536      38.5971
    202 2 0      88.5104      115.048       39.832
    203 3 0       85.903       112.19      39.2373
    204 1 0      85.9989      113.115      41.7812
    205 1 0      86.7729      113.548      40.6808
    206 1 0      87.7733      114.633      40.8731
    207 2 0      87.9257      115.184      42.0865
    208 3 0       85.272      112.335      41.6666
    209 1 0      86.2009       113.73      43.0369
    210 1 0      87.2176       114.81      43.1625
    211 3 0      85.6224      113.422      43.9079
    212 3 0      87.3879      115.296       44.123
    213 1 0      68.3452      22.9367      12.3135
    214 1 0      69.2755      22.9577      11.2679
    215 1 0      70.1781       24.064      11.1937
    216 2 0      70.1927      25.0757      12.0531
    217 3 0       67.644      22.1277      12.4147
    218 3 0      69.3113      22.1614      10.5375
    219 3 0      70.9202      24.1217      10.3951
    220 1 0      67.4329      24.0447      14.3161
    221 1 0      68.3536      24.0259       13.247
    222 1 0      69.3294      25.1319      13.0889
    223 2 0      69.3273      26.1446      13.9682
    224 3 0      66.7197      23.2539      14.4468
    225 1 0      66.5789      25.1959      16.2895
    226 1 0      67.4811      25.1383       15.208
    227 1 0      68.4776      26.2208      15.0057
    228 2 0      68.5023      27.2483      15.8672
    229 3 0      65.8543      24.4207      16.4467
    230 1 0      65.7749      26.4005      18.2518
    231 1 0      66.6577      26.3026      17.1575
    232 1 0      67.6708       27.361      16.9156
    233 2 0      67.7285      28.4063      17.7547
    234 3 0       65.039      25.6423      18.4367
    235 1 0      65.0253      27.6639      20.2029
    236 1 0      65.8868      27.5228      19.0956
    237 1 0       66.916       28.556      18.8134
    238 2 0      67.0086      29.6181      19.6272
    239 3 0      64.2783      26.9245      20.4168
    240 1 0      64.3342      28.9893      22.1408
    241 1 0      65.1718      28.8021      21.0209
    242 1 0       66.217      29.8068      20.6957
    243 2 0      66.3469      30.8857      21.4814
    244 3 0      63.5762      28.2711      22.3856
    245 1 0      63.7077      30.3812      24.0624
    246 1 0      64.5176      30.1434      22.9304
    247 1 0       65.579      31.1159      22.5589
    248 2 0      65.7495      32.2113      23.3124
    249 3 0      62.9386      29.6873       24.341
    250 1 0      63.1556      31.8466      25.9625
    251 1 0      63.9321      31.5515      24.8191
    252 1 0      65.0094      32.4876      24.3979
    253 2 0      65.2259      33.5998      25.1134
    254 3 0      62.3752      31.1823      26.2797
    255 1 0      62.6898        33.39      27.8317
    256 1 0      63.4276      33.0335      26.6793
    257 1 0      64.5193      33.9281      26.2056
    258 2 0      64.7862      35.0567      26.8777
    259 3 0      61.8989      32.7607      28.1911
    260 1 0       62.317      35.0084      29.6593
    261 1 0      63.0139      34.5919      28.5017
    262 1 0       64.118      35.4412      27.9747
    263 2 0      64.4348      36.5834      28.6014
    264 3 0      61.5178      34.4154      30.0596
    265 1 0      62.0363      36.6935      31.4394
    266 1 0       62.693      36.2218      30.2801
    267 1 0      63.8063      37.0231      29.7008
    268 2 0      64.1698      38.1755       30.283
    269 3 0      61.2313      36.1356      31.8767
    270 1 0      61.8436      38.4381      33.1703
    271 1 0      62.4604      37.9145      32.0117
    272 1 0      63.5804      38.6667      31.3823
    273 2 0      63.9873      39.8259      31.9207
    274 3 0      61.0349      37.9149       33.642
    275 1 0      61.7369      40.2377      34.8505
    276 1 0      62.3129      39.6638      33.6949
    277 1 0      63.4369      40.3659      33.0177
    278 2 0      63.8859      41.5293      33.5117
    279 3 0      60.9261      39.7501      35.3556
    280 1 0       61.716      42.0891      36.4776
    281 1 0      62.2497      41.4655      35.3274
    282 1 0      63.3754      42.1165      34.6039
    283 2 0      63.8654      43.2818      35.0526
    284 3 0      60.9047      41.6386      37.0152
    285 1 0      61.7809      43.9886      38.0482
    286 1 0       62.271      43.3166      36.9058
    287 1 0       63.396       43.915      36.1376
    288 2 0      63.9263      45.0797      36.5398
    289 3 0      60.9709      43.5764      38.6174
    290 1 0      61.9315      45.9321      39.5587
    291 1 0      62.3772       45.213      38.4265
    292 1 0      63.4991      45.7576      37.6152
    293 2 0      64.0686      46.9191      37.9698
    294 3 0      61.1246      45.5592      40.1587
    295 1 0      62.1675      47.9152       41.006
    296 1 0      62.5679      47.1509      39.8864
    297 1 0      63.6844      47.6402      39.0334
    298 2 0       64.292      48.7961      39.3395
    299 3 0      61.3654      47.5826      41.6353
    300 1 0      62.4885      49.9333      42.3865
    301 1 0      62.8429      49.1257       41.282
    302 1 0      63.9515      49.5587      40.3892
    303 2 0      64.5962      50.7065      40.6459
    304 3 0      61.6928      49.6417      43.0438
    305 1 0      62.8935      51.9819      43.6973
    306 1 0      63.2014      51.1328        42.61
    307 1 0      64.2999      51.5086      41.6792
    308 2 0      64.9803      52.6457      41.8859
    309 3 0      62.1061      51.7318      44.3811
    310 1 0      63.3816      54.0562      44.9353
    311 1 0      63.6425      53.1677      43.8675
    312 1 0      64.7286      53.4857       42.901
    313 2 0      65.4433      54.6097       43.057
    314 3 0      62.6041       53.848       45.644
    315 1 0      64.1653      55.2257      45.0518
    316 1 0      65.2367      55.4856      44.0516
    317 3 0      63.9929       55.934      45.8622
    318 3 0       65.852      56.3824      44.1247
    319 1 0      113.715      11.0698      40.2328
    320 1 0      114.977      11.3672      40.7601
    321 1 0       115.22      12.7024      41.2098
    322 2 0      114.325       13.682      41.1605
    323 3 0      113.481      10.0811      39.8806
    324 3 0      115.746      10.6102      40.8257
    325 3 0      116.189      12.9792       41.628
    326 1 0      111.457      11.8661      39.6516
    327 1 0      112.742      12.1223      40.1756
    328 1 0      113.085       13.479      40.6669
    329 2 0      112.167      14.4546      40.6081
    330 3 0       111.19      10.8914      39.2915
    331 1 0       109.24      12.7214       39.101
    332 1 0      110.534      12.9346      39.6167
    333 1 0      110.928      14.2749      40.1211
    334 2 0      110.033      15.2728      40.0767
    335 3 0      108.943      11.7583      38.7335
    336 1 0      107.044       13.643      38.5758
    337 1 0      108.348      13.8117      39.0828
    338 1 0      108.786      15.1337       39.598
    339 2 0      107.921      16.1584      39.5712
    340 3 0      106.716       12.693       38.201
    341 1 0       104.87      14.6376      38.0781
    342 1 0      106.183      14.7583      38.5755
    343 1 0      106.666      16.0607      39.1012
    344 2 0      105.834      17.1121      39.0934
    345 3 0      104.509      13.7024      37.6959
    346 1 0       102.72      15.7093      37.6101
    347 1 0      104.042      15.7784      38.0965
    348 1 0      104.573      17.0582       38.633
    349 2 0      103.777      18.1368      38.6454
    350 3 0      102.325      14.7912      37.2205
    351 1 0      100.598      16.8644       37.175
    352 1 0      101.929      16.8764      37.6486
    353 1 0      102.511      18.1301      38.1961
    354 2 0      101.755      19.2367      38.2306
    355 3 0      100.167      15.9664      36.7777
    356 1 0      98.5135      18.1125      36.7781
    357 1 0      99.8495      18.0594      37.2359
    358 1 0      100.487      19.2826      37.7945
    359 2 0      99.7792      20.4191      37.8542
    360 3 0      98.0394      17.2397      36.3726
    361 1 0      96.4766      19.4615      36.4256
    362 1 0      97.8149      19.3376       36.865
    363 1 0      98.5094      20.5252      37.4342
    364 2 0      97.8566      21.6925      37.5215
    365 3 0      95.9564      18.6193      36.0122
    366 1 0      94.5001      20.9105      36.1218
    367 1 0      95.8363      20.7166      36.5413
    368 1 0      96.5888      21.8642      37.1201
    369 2 0      95.9925      23.0595       37.235
    370 3 0      93.9358      20.1008      35.7016
    371 1 0      92.5901      22.4512      35.8664
    372 1 0      93.9208      22.1921      36.2663
    373 1 0      94.7295      23.2961       36.853
    374 2 0      94.1882      24.5152      36.9939
    375 3 0      91.9861      21.6736       35.441
    376 1 0      90.7476      24.0754      35.6577
    377 1 0      92.0702      23.7545      36.0378
    378 1 0      92.9324      24.8132      36.6311
    379 2 0      92.4448      26.0517      36.7963
    380 3 0      90.1069      23.3302      35.2281
    381 1 0      88.9737      25.7784      35.4947
    382 1 0      90.2857      25.3967      35.8545
    383 1 0      91.1986      26.4083      36.4529
    384 2 0      90.7651      27.6635      36.6417
    385 3 0      88.2979      25.0668      35.0619
    386 1 0       87.271      27.5567      35.3774
    387 1 0      88.5697      27.1147       35.716
    388 1 0      89.5312      28.0775      36.3184
    389 2 0      89.1525      29.3467      36.5304
    390 3 0      86.5612      26.8808      34.9422
    391 1 0      85.6431      29.4071      35.3061
    392 1 0      86.9256      28.9053      35.6228
    393 1 0      87.9337      29.8173      36.2277
    394 2 0      87.6109      31.0979      36.4626
    395 3 0      84.9004      28.7684      34.8695
    396 1 0      84.0935      31.3253      35.2811
    397 1 0      85.3572      30.7649      35.5751
    398 1 0      86.4098      31.6241      36.1814
    399 2 0      86.1439      32.9133      36.4387
    400 3 0      83.3193      30.7256       34.844
    401 1 0      82.6256      33.3072      35.3023
    402 1 0      83.8679      32.6898      35.5732
    403 1 0      84.9629       33.494      36.1795
    404 2 0      84.7546      34.7892      36.4588
    405 3 0      81.8217      32.7477      34.8656
    406 1 0       81.243      35.3482      35.3697
    407 1 0      82.4611      34.6752      35.6169
    408 1 0      83.5963      35.4229       36.222
    409 2 0      83.4463      36.7213      36.5228
    410 3 0       80.411      34.8301      34.9344
    411 1 0      79.9486      37.4435      35.4831
    412 1 0      81.1402      36.7168      35.7063
    413 1 0      82.3132      37.4063      36.3089
    414 2 0      82.2219       38.705      36.6306
    415 3 0      79.0904      36.9679      35.0501
    416 1 0      78.7454      39.5885      35.6423
    417 1 0       79.908      38.8097      35.8411
    418 1 0       81.116      39.4398      36.4399
    419 2 0       81.084      40.7361      36.7819
    420 3 0       77.863      39.1561      35.2126
    421 1 0      78.7673      40.9492      36.0209
    422 1 0      80.0077      41.5189      36.6147
    423 3 0      77.8895      41.5806      35.8827
    424 3 0      80.0441      42.5666      36.9131
    425 1 0      115.297      53.7306      144.605
    426 1 0      115.652      54.5698      145.668
    427 1 0      114.631      55.3822      146.252
    428 2 0      113.365      55.3935      145.853
    429 3 0      116.027      53.0994       144.13
    430 3 0      116.668      54.6035      146.036
    431 3 0      114.863      56.0516      147.083
    432 1 0       113.53      52.9055      143.099
    433 1 0      113.931      53.7362      144.167
    434 1 0       112.94      54.6146      144.836
    435 2 0      111.666      54.6109      144.417
    436 3 0      114.232      52.2635      142.603
    437 1 0      111.733       52.133      141.643
    438 1 0      112.175      52.9471      142.705
    439 1 0      111.222      53.8443      143.408
    440 2 0       109.94      53.8647      143.014
    441 3 0       112.41      51.4807      141.127
    442 1 0      109.889      51.4056      140.222
    443 1 0      110.373      52.2023      141.279
    444 1 0      109.458      53.1144       142.01
    445 2 0      108.167      53.1646      141.647
    446 3 0       110.54      50.7431      139.687
    447 1 0      107.993      50.7272       138.84
    448 1 0      108.523      51.5046       139.89
    449 1 0      107.646      52.4313       140.65
    450 2 0      106.349      52.5129       140.32
    451 3 0      108.616      50.0546      138.284
    452 1 0      106.043      50.1013        137.5
    453 1 0      106.622      50.8573      138.541
    454 1 0      105.787      51.7985      139.331
    455 2 0      104.484      51.9138      139.038
    456 3 0      106.635      49.4187      136.922
    457 1 0      104.036      49.5336      136.206
    458 1 0      104.667      50.2648      137.236
    459 1 0      103.879      51.2206      138.059
    460 2 0      102.572      51.3725      137.805
    461 3 0      104.593       48.841      135.606
    462 1 0      101.967       49.033      134.968
    463 1 0      102.657      49.7341      135.984
    464 1 0      101.921      50.7043      136.839
    465 2 0      100.612      50.8976      136.631
    466 3 0      102.483      48.3301      134.343
    467 1 0      99.8359        48.61      133.798
    468 1 0      100.587      49.2763      134.794
    469 1 0      99.9092      50.2597      135.683
    470 2 0      98.5996      50.4984      135.526
    471 3 0      100.303      47.8976      133.146
    472 1 0      97.6482      48.2709      132.703
    473 1 0      98.4576      48.9004      133.677
    474 1 0      97.8423      49.8949      134.599
    475 2 0       96.536      50.1788      134.494
    476 3 0      98.0663      47.5509      132.027
    477 1 0      95.4145      48.0147      131.688
    478 1 0      96.2767      48.6079      132.638
    479 1 0      95.7256       49.611       133.59
    480 2 0      94.4257      49.9369      133.535
    481 3 0       95.786      47.2894       130.99
    482 1 0      93.1421      47.8378      130.749
    483 1 0      94.0531      48.3951      131.674
    484 1 0      93.5664      49.4042      132.654
    485 2 0      92.2758      49.7693      132.647
    486 3 0      93.4684      47.1091      130.033
    487 1 0      90.8356      47.7384      129.886
    488 1 0      91.7933       48.259      130.785
    489 1 0      91.3712      49.2718      131.791
    490 2 0      90.0924      49.6748       131.83
    491 3 0      91.1163      47.0077      129.153
    492 1 0      88.4993      47.7162      129.101
    493 1 0       89.502      48.1988      129.972
    494 1 0      89.1449      49.2132      131.001
    495 2 0      87.8807      49.6533      131.086
    496 3 0      88.7332      46.9851      128.352
    497 1 0      86.1375      47.7714      128.395
    498 1 0      87.1834      48.2148      129.236
    499 1 0      86.8921      49.2287      130.285
    500 2 0       85.645       49.705      130.417
    501 3 0      86.3239      47.0414      127.632
    502 1 0      83.7557      47.9039       127.77
    503 1 0      84.8425      48.3072      128.579
    504 1 0      84.6176      49.3184      129.647
    505 2 0      83.3907      49.8301      129.825
    506 3 0      83.8937      47.1765      126.994
    507 1 0      81.3591      48.1134      127.227
    508 1 0      82.4841      48.4759      128.002
    509 1 0      82.3265      49.4823      129.086
    510 2 0      81.1222      50.0285      129.311
    511 3 0      81.4485      47.3902       126.44
    512 1 0      78.9531      48.3994      126.767
    513 1 0      80.1139      48.7205      127.507
    514 1 0      80.0239      49.7199      128.605
    515 2 0       78.845      50.2995      128.876
    516 3 0      78.9937       47.682      125.971
    517 1 0      76.5434      48.7611      126.391
    518 1 0      77.7372      49.0404      127.095
    519 1 0       77.715      50.0308      128.205
    520 2 0      76.5641      50.6426      128.521
    521 3 0      76.5351      48.0512      125.587
    522 1 0      74.1354      49.1979      126.101
    523 1 0      75.3595      49.4348      126.766
    524 1 0      75.4048      50.4141      127.886
    525 2 0      74.2845      51.0569      128.247
    526 3 0      74.0786      48.4968      125.291
    527 1 0      72.9862      49.9028      126.522
    528 1 0      73.0986       50.869      127.649
    529 3 0       72.025       49.746      126.033
    530 3 0      72.2232      51.4225      127.989
    531 1 0      126.705      88.2128      63.3388
    532 1 0      128.098      88.0844      63.2739
    533 1 0      128.864      88.4993      64.4072
    534 2 0      128.342      88.9996      65.5204
    535 3 0      126.083      87.9155      62.5139
    536 3 0       128.58      87.6836      62.3933
    537 3 0      129.953      88.4173      64.4006
    538 1 0      124.733      88.8991      64.6456
    539 1 0      126.132      88.7525      64.5379
    540 1 0      127.009      89.1562      65.6639
    541 2 0      126.461      89.6595      66.7798
    542 3 0      124.082      88.6127       63.842
    543 1 0      122.825      89.5982      65.9947
    544 1 0      124.217      89.4351      65.8459
    545 1 0      125.138       89.824       66.944
    546 2 0      124.622      90.3307      68.0737
    547 3 0      122.149      89.3213      65.2092
    548 1 0      120.964      90.3164      67.3977
    549 1 0      122.348      90.1361      67.2064
    550 1 0      123.307      90.5107      68.2765
    551 2 0      122.832      91.0212      69.4225
    552 3 0      120.261      90.0495      66.6321
    553 1 0      119.153      91.0556      68.8604
    554 1 0      120.529      90.8571      68.6235
    555 1 0      121.525      91.2167      69.6643
    556 2 0      121.094      91.7304      70.8256
    557 3 0      118.424      90.7998      68.1166
    558 1 0      117.397       91.817      70.3859
    559 1 0      118.761      91.5991      70.1004
    560 1 0      119.798      91.9422      71.1083
    561 2 0      119.413      92.4587      72.2846
    562 3 0       116.64      91.5733      69.6664
    563 1 0      115.703      92.6017      71.9785
    564 1 0      117.053      92.3628      71.6399
    565 1 0      118.131      92.6876      72.6109
    566 2 0      117.799      93.2061      73.8014
    567 3 0      114.916      92.3718      71.2869
    568 1 0      114.081      93.4118       73.645
    569 1 0      115.412      93.1495      73.2465
    570 1 0      116.533      93.4537      74.1758
    571 2 0      116.262      93.9738      75.3805
    572 3 0      113.261      93.1983      72.9871
    573 1 0      112.548      94.2479      75.3894
    574 1 0      113.853      93.9608      74.9268
    575 1 0      115.019      94.2423      75.8091
    576 2 0      114.814       94.763      77.0271
    577 3 0      111.693      94.0533       74.771
    578 1 0      111.115      95.1073      77.2076
    579 1 0       112.39      94.7965      76.6828
    580 1 0      113.599      95.0536       77.514
    581 2 0      113.463      95.5736      78.7422
    582 3 0      110.228      94.9319      76.6299
    583 1 0      109.785       95.986      79.0904
    584 1 0      111.029      95.6538      78.5087
    585 1 0      112.278      95.8857      79.2861