# LAMMPS data file written by Ovito Basic 3.0.0-dev791
235 atoms
5 atom types
0.0 5.1499657631 xlo xhi
0.0 25.1000003815 ylo yhi
0.0 32.0 zlo zhi

Atoms  # charge

1 1 0.0 0.0 0.0 9.999999046
2 1 0.0 0.0 0.0 15.149964333
3 1 0.0 0.0 5.149965286 9.999999046
4 1 0.0 0.0 5.149965286 15.149964333
5 1 0.0 2.574982643 0.0 12.574981689
6 1 0.0 2.574982643 0.0 17.724946976
7 1 0.0 2.574982643 5.149965286 12.574981689
8 1 0.0 2.574982643 5.149965286 17.724946976
9 1 0.0 2.574982643 2.574982643 9.999999046
10 1 0.0 2.574982643 2.574982643 15.149964333
11 1 0.0 2.574982643 7.724948406 9.999999046
12 1 0.0 2.574982643 7.724948406 15.149964333
13 2 0.0 0.0 2.574982643 12.574981689
14 2 0.0 0.0 2.574982643 17.724946976
15 2 0.0 0.0 7.724948406 12.574981689
16 2 0.0 0.0 7.724948406 17.724946976
17 3 0.0 0.0 10.300000191 9.999999046
18 3 0.0 0.0 10.300000191 16.081798553
19 3 0.0 0.0 14.595118523 9.999999046
20 3 0.0 0.0 14.595118523 16.081798553
21 3 0.0 0.0 18.890230179 9.999999046
22 3 0.0 0.0 18.890230179 16.081798553
23 3 0.0 2.479789972 10.300000191 9.999999046
24 3 0.0 2.479789972 10.300000191 16.081798553
25 3 0.0 2.479789972 14.595118523 9.999999046
26 3 0.0 2.479789972 14.595118523 16.081798553
27 3 0.0 2.479789972 18.890230179 9.999999046
28 3 0.0 2.479789972 18.890230179 16.081798553
29 3 0.0 1.23988986 12.44756031 9.999999046
30 3 0.0 1.23988986 12.44756031 16.081798553
31 3 0.0 1.23988986 16.742668152 9.999999046
32 3 0.0 1.23988986 16.742668152 16.081798553
33 3 0.0 1.23988986 21.037788391 9.999999046
34 3 0.0 1.23988986 21.037788391 16.081798553
35 3 0.0 3.719679594 12.44756031 9.999999046
36 3 0.0 3.719679594 12.44756031 16.081798553
37 3 0.0 3.719679594 16.742668152 9.999999046
38 3 0.0 3.719679594 16.742668152 16.081798553
39 3 0.0 3.719679594 21.037788391 9.999999046
40 3 0.0 3.719679594 21.037788391 16.081798553
41 3 0.0 0.0 11.731710434 12.005378723
42 3 0.0 0.0 11.731710434 18.087177277
43 3 0.0 0.0 16.026830673 12.005378723
44 3 0.0 0.0 16.026830673 18.087177277
45 3 0.0 0.0 20.321939468 12.005378723
46 3 0.0 0.0 20.321939468 18.087177277
47 3 0.0 2.479789972 11.731710434 12.005378723
48 3 0.0 2.479789972 11.731710434 18.087177277
49 3 0.0 2.479789972 16.026830673 12.005378723
50 3 0.0 2.479789972 16.026830673 18.087177277
51 3 0.0 2.479789972 20.321939468 12.005378723
52 3 0.0 2.479789972 20.321939468 18.087177277
53 3 0.0 1.23988986 13.879268646 12.005378723
54 3 0.0 1.23988986 13.879268646 18.087177277
55 3 0.0 1.23988986 18.174377441 12.005378723
56 3 0.0 1.23988986 18.174377441 18.087177277
57 3 0.0 1.23988986 22.469497681 12.005378723
58 3 0.0 1.23988986 22.469497681 18.087177277
59 3 0.0 3.719679594 13.879268646 12.005378723
60 3 0.0 3.719679594 13.879268646 18.087177277
61 3 0.0 3.719679594 18.174377441 12.005378723
62 3 0.0 3.719679594 18.174377441 18.087177277
63 3 0.0 3.719679594 22.469497681 12.005378723
64 3 0.0 3.719679594 22.469497681 18.087177277
65 3 0.0 1.23988986 11.015849113 14.040979385
66 3 0.0 1.23988986 15.310970306 14.040979385
67 3 0.0 1.23988986 19.606077194 14.040979385
68 3 0.0 3.719679594 11.015849113 14.040979385
69 3 0.0 3.719679594 15.310970306 14.040979385
70 3 0.0 3.719679594 19.606077194 14.040979385
71 3 0.0 0.0 13.163408279 14.040979385
72 3 0.0 0.0 17.458518982 14.040979385
73 3 0.0 0.0 21.753637314 14.040979385
74 3 0.0 2.479789972 13.163408279 14.040979385
75 3 0.0 2.479789972 17.458518982 14.040979385
76 3 0.0 2.479789972 21.753637314 14.040979385
77 4 0.0 1.287490845 3.862473726 13.862473488
78 4 0.0 1.287490845 9.012438774 13.862473488
79 4 0.0 1.287490845 1.287490845 13.862473488
80 4 0.0 1.287490845 6.437457561 13.862473488
81 4 0.0 1.287490845 3.862473726 11.287490845
82 4 0.0 1.287490845 3.862473726 16.437456131
83 4 0.0 1.287490845 9.012438774 11.287490845
84 4 0.0 1.287490845 9.012438774 16.437456131
85 4 0.0 3.862473726 3.862473726 11.287490845
86 4 0.0 3.862473726 3.862473726 16.437456131
87 4 0.0 3.862473726 9.012438774 11.287490845
88 4 0.0 3.862473726 9.012438774 16.437456131
89 4 0.0 3.862473726 1.287490845 11.287490845
90 4 0.0 3.862473726 1.287490845 16.437456131
91 4 0.0 3.862473726 6.437457561 11.287490845
92 4 0.0 3.862473726 6.437457561 16.437456131
93 4 0.0 3.862473726 1.287490845 13.862473488
94 4 0.0 3.862473726 6.437457561 13.862473488
95 4 0.0 1.710724831 23.651165009 13.683879852
96 4 0.0 4.28572464 23.651165009 16.258878708
97 4 0.0 4.28572464 23.651165009 13.683879852
98 4 0.0 4.28572464 23.651165009 11.108880043
99 5 0.0 4.5457632278 22.048433855 21.8183529757
100 5 0.0 4.5468632278 21.418033855 21.4959529757
101 5 0.0 4.5303632278 20.533933855 24.1457529757
102 5 0.0 4.5303632278 19.825933855 24.1449529757
103 5 0.0 4.5183632278 21.413033855 27.8789529757
104 5 0.0 4.5203632278 21.097933855 27.2448529757
105 5 0.0 4.5462632278 18.400133855 21.6595529757
106 5 0.0 4.5467632278 17.704433855 21.5450529757
107 5 0.0 4.5222632278 17.937633855 26.6472529757
108 5 0.0 4.5379632278 15.524633855 21.7362529757
109 5 0.0 4.5396632278 15.089633855 21.1925529757
110 5 0.0 4.5313632278 16.219433855 23.8369529757
111 5 0.0 4.5218632278 17.243333855 26.7858529757
112 5 0.0 4.5314632278 15.513933855 23.7789529757
113 5 0.0 4.5127632278 18.012533855 29.6085529757
114 5 0.0 4.5133632278 17.329433855 29.4225529757
115 5 0.0 4.5462632278 13.025233855 21.7028529757
116 5 0.0 4.5455632278 12.337733855 21.8507529757
117 5 0.0 4.5236632278 14.203033855 26.1980529757
118 5 0.0 4.5257632278 13.891133855 25.5642529757
119 5 0.0 4.5268632278 11.706033855 25.2028529757
120 5 0.0 4.5146632278 13.003933855 29.0118529757
121 5 0.0 4.5164632278 12.602233855 28.4288529757
122 5 0.0 4.5261632278 11.034333855 25.4193529757
123 5 0.0 4.5349632278 9.665033855 22.6874529757
124 5 0.0 4.5402632278 8.226033855 21.0098529757
125 5 0.0 4.5340632278 9.014933855 22.9699529757
126 5 0.0 4.5410632278 7.613333855 20.6683529757
127 5 0.0 4.5182632278 9.161633855 27.8648529757
128 5 0.0 4.5444632278 6.376033855 22.3141529757
129 5 0.0 4.5252632278 7.666833855 25.6845529757
130 5 0.0 4.5168632278 8.618433855 28.3191529757
131 5 0.0 4.5440632278 5.674033855 22.3184529757
132 5 0.0 4.5252632278 6.958933855 25.6855529757
133 5 0.0 4.5287632278 4.007133855 24.6110529757
134 5 0.0 4.5448632278 2.705733855 22.0596529757
135 5 0.0 4.5203632278 4.674333855 27.2010529757
136 5 0.0 4.5289632278 3.302233855 24.5461529757
137 5 0.0 4.5452632278 2.010433855 21.9320529757
138 5 0.0 4.5190632278 4.099633855 27.6140529757
139 5 0.0 4.5419632278 -0.001366145 20.5084529757
140 5 0.0 4.5397632278 -0.310566145 21.1741529757
141 5 0.0 4.5216632278 1.743833855 26.8106529757
142 5 0.0 4.5303632278 -0.027066145 24.0936529757
143 5 0.0 4.5220632278 1.036633855 26.6582529757
144 5 0.0 4.5316632278 -0.611666145 23.6831529757
145 5 0.0 0.3278472907 22.0397643678 22.436960555
146 5 0.0 0.3289472907 21.4093643678 22.114560555
147 5 0.0 0.3124472907 20.5252643678 24.764360555
148 5 0.0 0.3124472907 19.8172643678 24.763560555
149 5 0.0 0.3004472907 21.4043643678 28.497560555
150 5 0.0 0.3024472907 21.0892643678 27.863460555
151 5 0.0 0.3283472907 18.3914643678 22.278160555
152 5 0.0 0.3288472907 17.6957643678 22.163660555
153 5 0.0 0.3043472907 17.9289643678 27.265860555
154 5 0.0 0.3200472907 15.5159643678 22.354860555
155 5 0.0 0.3217472907 15.0809643678 21.811160555
156 5 0.0 0.3134472907 16.2107643678 24.455560555
157 5 0.0 0.3039472907 17.2346643678 27.404460555
158 5 0.0 0.3135472907 15.5052643678 24.397560555
159 5 0.0 0.2948472907 18.0038643678 30.227160555
160 5 0.0 0.2954472907 17.3207643678 30.041160555
161 5 0.0 0.3283472907 13.0165643678 22.321460555
162 5 0.0 0.3276472907 12.3290643678 22.469360555
163 5 0.0 4.5237105185 14.2029982228 26.1980135307
164 5 0.0 0.3089472907 11.6973643678 25.821460555
165 5 0.0 0.2967472907 12.9952643678 29.630460555
166 5 0.0 0.2985472907 12.5935643678 29.047460555
167 5 0.0 0.3082472907 11.0256643678 26.037960555
168 5 0.0 0.3170472907 9.6563643678 23.306060555
169 5 0.0 0.3223472907 8.2173643678 21.628460555
170 5 0.0 0.3161472907 9.0062643678 23.588560555
171 5 0.0 0.3231472907 7.6046643678 21.286960555
172 5 0.0 0.3003472907 9.1529643678 28.483460555
173 5 0.0 0.3265472907 6.3673643678 22.932760555
174 5 0.0 0.3073472907 7.6581643678 26.303160555
175 5 0.0 0.2989472907 8.6097643678 28.937760555
176 5 0.0 0.3261472907 5.6653643678 22.937060555
177 5 0.0 0.3073472907 6.9502643678 26.304160555
178 5 0.0 0.3108472907 3.9984643678 25.229660555
179 5 0.0 0.3269472907 2.6970643678 22.678260555
180 5 0.0 0.3024472907 4.6656643678 27.819660555
181 5 0.0 0.3110472907 3.2935643678 25.164760555
182 5 0.0 0.3273472907 2.0017643678 22.550660555
183 5 0.0 0.3011472907 4.0909643678 28.232660555
184 5 0.0 0.3240472907 -0.0100356322 21.127060555
185 5 0.0 0.3218472907 -0.3192356322 21.792760555
186 5 0.0 0.3037472907 1.7351643678 27.429260555
187 5 0.0 0.3124472907 -0.0357356322 24.712260555
188 5 0.0 0.3041472907 1.0279643678 27.276860555
189 5 0.0 0.3137472907 -0.6203356322 24.301760555
190 5 0.0 2.5629985261 0.8575612679 21.4214277479
191 5 0.0 2.5651514523 1.1668385181 20.7557302874
192 5 0.0 2.55491417 0.5564812991 23.9304371797
193 5 0.0 2.5535963919 1.1411305825 24.3409200558
194 5 0.0 2.5453423644 2.2048219254 26.9054554622
195 5 0.0 2.5448571442 2.9119875197 27.0578503923
196 5 0.0 2.56288721 16.2577879463 21.4398201262
197 5 0.0 2.5612090569 16.6928304672 21.9834746548
198 5 0.0 2.564329891 8.781515489 20.9155613388
199 5 0.0 2.5635333297 9.3941791738 21.2571167017
200 5 0.0 2.5365690653 18.4976006248 29.6697771302
201 5 0.0 2.5359752254 19.1806928577 29.8558244973
202 5 0.0 2.5378567858 14.172145874 29.2591431628
203 5 0.0 2.5397320066 13.7704125354 28.6760874361
204 5 0.0 2.5400530715 9.7866061309 28.566353535
205 5 0.0 2.5415210349 10.3297528573 28.1120954068
206 5 0.0 2.5415754283 22.5811555172 28.1262144373
207 5 0.0 2.5436158922 22.2660612642 27.492089291
208 5 0.0 2.5422878427 5.2678390326 27.8612905688
209 5 0.0 2.543623225 5.8424770522 27.4482737325
210 5 0.0 2.5489718712 15.0593229388 25.8114768147
211 5 0.0 2.5469322196 15.3711662494 26.4453043573
212 5 0.0 2.545063395 18.4115009788 27.0330565525
213 5 0.0 2.5455154132 19.1058370759 26.8945284143
214 5 0.0 2.5485252144 8.1270951995 25.9327640237
215 5 0.0 2.548533773 8.8349706536 25.9318131188
216 5 0.0 2.5494154695 12.20246523 25.6665807764
217 5 0.0 2.5501186428 12.8742201305 25.4501170158
218 5 0.0 2.5535943231 20.9941329298 24.3921923706
219 5 0.0 2.5535947355 21.7020849725 24.3930107995
220 5 0.0 2.5547393914 16.6821346896 24.0262358878
221 5 0.0 2.5545533664 17.3876181203 24.0842340185
222 5 0.0 2.5521577928 4.4704468032 24.7933559696
223 5 0.0 2.5519629962 5.1753190527 24.8582931261
224 5 0.0 2.5572872586 10.1831059674 23.2171985836
225 5 0.0 2.5582035635 10.833166335 22.9346998283
226 5 0.0 2.5685279793 3.1785686806 22.1793360172
227 5 0.0 2.5681228125 3.873946606 22.3069280399
228 5 0.0 2.5672990284 6.8422439786 22.565713611
229 5 0.0 2.567745157 7.544207657 22.5613758697
230 5 0.0 2.5688470652 13.5059131214 22.0979948567
231 5 0.0 2.5694808872 14.1933953156 21.9500754227
232 5 0.0 2.5699509508 18.8725726513 21.7923004008
233 5 0.0 2.5695052958 19.5682617156 21.9067960496
234 5 0.0 2.5700767863 22.5862363892 21.7432064587
235 5 0.0 2.5690453111 23.2165982604 22.0655829716
