

 8176 atoms
17 atom types
-49 72.0363 xlo xhi
0 24.2487 ylo yhi
-4.55 50.05 zlo zhi

Masses

1  12.01070 # CpB
2  12.01070 # CC1
3  12.01070 # CC2
4  12.01070 # CE
5  12.01070 # CH
6  12.01070 # CW
7  15.99940 # OC1
8  15.99940 # OC2
9  15.99940 # OE
10  15.99940 # OH
11  15.99940 # OW
12  15.99940 # OD
13  1.00794 # HC
14  1.00794 # HH
15  1.00794 # HW
16  2.01410 # HD
17  12.01070 # CpE
Atoms # charge

1 1 0.000000 0.700000 0.000000  0.000000
2 1 0.000000 4.900000 0.000000  0.000000
3 5 0.000000 9.100000 0.000000  0.000000
4 1 0.000000 13.300000 0.000000  0.000000
5 1 0.000000 17.500000 0.000000  0.000000
6 5 0.000000 21.700000 0.000000  0.000000
7 1 0.000000 0.700000 2.424871  0.000000
8 1 0.000000 4.900000 2.424871  0.000000
9 5 0.000000 9.100000 2.424871  0.000000
10 1 0.000000 13.300000 2.424871  0.000000
11 5 0.000000 17.500000 2.424871  0.000000
12 5 0.000000 21.700000 2.424871  0.000000
13 1 0.000000 0.700000 4.849742  0.000000
14 1 0.000000 4.900000 4.849742  0.000000
15 1 0.000000 9.100000 4.849742  0.000000
16 1 0.000000 13.300000 4.849742  0.000000
17 1 0.000000 17.500000 4.849742  0.000000
18 5 0.000000 21.700000 4.849742  0.000000
19 1 0.000000 0.700000 7.274613  0.000000
20 1 0.000000 4.900000 7.274613  0.000000
21 1 0.000000 9.100000 7.274613  0.000000
22 1 0.000000 13.300000 7.274613  0.000000
23 5 0.000000 17.500000 7.274613  0.000000
24 1 0.000000 21.700000 7.274613  0.000000
25 1 0.000000 0.700000 9.699485  0.000000
26 1 0.000000 4.900000 9.699485  0.000000
27 1 0.000000 9.100000 9.699485  0.000000
28 1 0.000000 13.300000 9.699485  0.000000
29 5 0.000000 17.500000 9.699485  0.000000
30 5 0.000000 21.700000 9.699485  0.000000
31 1 0.000000 0.700000 12.124356  0.000000
32 5 0.000000 4.900000 12.124356  0.000000
33 1 0.000000 9.100000 12.124356  0.000000
34 1 0.000000 13.300000 12.124356  0.000000
35 1 0.000000 17.500000 12.124356  0.000000
36 5 0.000000 21.700000 12.124356  0.000000
37 1 0.000000 0.700000 14.549227  0.000000
38 5 0.000000 4.900000 14.549227  0.000000
39 1 0.000000 9.100000 14.549227  0.000000
40 1 0.000000 13.300000 14.549227  0.000000
41 5 0.000000 17.500000 14.549227  0.000000
42 5 0.000000 21.700000 14.549227  0.000000
43 1 0.000000 0.700000 16.974098  0.000000
44 1 0.000000 4.900000 16.974098  0.000000
45 1 0.000000 9.100000 16.974098  0.000000
46 5 0.000000 13.300000 16.974098  0.000000
47 1 0.000000 17.500000 16.974098  0.000000
48 1 0.000000 21.700000 16.974098  0.000000
49 1 0.000000 0.700000 19.398969  0.000000
50 1 0.000000 4.900000 19.398969  0.000000
51 5 0.000000 9.100000 19.398969  0.000000
52 1 0.000000 13.300000 19.398969  0.000000
53 1 0.000000 17.500000 19.398969  0.000000
54 5 0.000000 21.700000 19.398969  0.000000
55 5 0.000000 0.700000 21.823840  0.000000
56 1 0.000000 4.900000 21.823840  0.000000
57 1 0.000000 9.100000 21.823840  0.000000
58 1 0.000000 13.300000 21.823840  0.000000
59 5 0.000000 17.500000 21.823840  0.000000
60 1 0.000000 21.700000 21.823840  0.000000
61 1 0.000000 2.100000 0.000000  0.000000
62 5 0.000000 6.300000 0.000000  0.000000
63 1 0.000000 10.500000 0.000000  0.000000
64 5 0.000000 14.700000 0.000000  0.000000
65 1 0.000000 18.900000 0.000000  0.000000
66 1 0.000000 23.100000 0.000000  0.000000
67 1 0.000000 2.100000 2.424871  0.000000
68 5 0.000000 6.300000 2.424871  0.000000
69 1 0.000000 10.500000 2.424871  0.000000
70 5 0.000000 14.700000 2.424871  0.000000
71 1 0.000000 18.900000 2.424871  0.000000
72 1 0.000000 23.100000 2.424871  0.000000
73 5 0.000000 2.100000 4.849742  0.000000
74 5 0.000000 6.300000 4.849742  0.000000
75 1 0.000000 10.500000 4.849742  0.000000
76 5 0.000000 14.700000 4.849742  0.000000
77 1 0.000000 18.900000 4.849742  0.000000
78 5 0.000000 23.100000 4.849742  0.000000
79 1 0.000000 2.100000 7.274613  0.000000
80 5 0.000000 6.300000 7.274613  0.000000
81 1 0.000000 10.500000 7.274613  0.000000
82 5 0.000000 14.700000 7.274613  0.000000
83 5 0.000000 18.900000 7.274613  0.000000
84 1 0.000000 23.100000 7.274613  0.000000
85 1 0.000000 2.100000 9.699485  0.000000
86 5 0.000000 6.300000 9.699485  0.000000
87 5 0.000000 10.500000 9.699485  0.000000
88 5 0.000000 14.700000 9.699485  0.000000
89 1 0.000000 18.900000 9.699485  0.000000
90 1 0.000000 23.100000 9.699485  0.000000
91 5 0.000000 2.100000 12.124356  0.000000
92 1 0.000000 6.300000 12.124356  0.000000
93 1 0.000000 10.500000 12.124356  0.000000
94 1 0.000000 14.700000 12.124356  0.000000
95 5 0.000000 18.900000 12.124356  0.000000
96 1 0.000000 23.100000 12.124356  0.000000
97 5 0.000000 2.100000 14.549227  0.000000
98 5 0.000000 6.300000 14.549227  0.000000
99 1 0.000000 10.500000 14.549227  0.000000
100 1 0.000000 14.700000 14.549227  0.000000
101 1 0.000000 18.900000 14.549227  0.000000
102 5 0.000000 23.100000 14.549227  0.000000
103 1 0.000000 2.100000 16.974098  0.000000
104 1 0.000000 6.300000 16.974098  0.000000
105 1 0.000000 10.500000 16.974098  0.000000
106 5 0.000000 14.700000 16.974098  0.000000
107 1 0.000000 18.900000 16.974098  0.000000
108 1 0.000000 23.100000 16.974098  0.000000
109 1 0.000000 2.100000 19.398969  0.000000
110 1 0.000000 6.300000 19.398969  0.000000
111 1 0.000000 10.500000 19.398969  0.000000
112 5 0.000000 14.700000 19.398969  0.000000
113 5 0.000000 18.900000 19.398969  0.000000
114 1 0.000000 23.100000 19.398969  0.000000
115 1 0.000000 2.100000 21.823840  0.000000
116 1 0.000000 6.300000 21.823840  0.000000
117 1 0.000000 10.500000 21.823840  0.000000
118 1 0.000000 14.700000 21.823840  0.000000
119 1 0.000000 18.900000 21.823840  0.000000
120 5 0.000000 23.100000 21.823840  0.000000
121 17 0.000000 0.000000 1.212436  0.000000
122 1 0.000000 4.200000 1.212436  0.000000
123 1 0.000000 8.400000 1.212436  0.000000
124 5 0.000000 12.600000 1.212436  0.000000
125 5 0.000000 16.800000 1.212436  0.000000
126 1 0.000000 21.000000 1.212436  0.000000
127 17 0.000000 0.000000 3.637307  0.000000
128 1 0.000000 4.200000 3.637307  0.000000
129 1 0.000000 8.400000 3.637307  0.000000
130 1 0.000000 12.600000 3.637307  0.000000
131 1 0.000000 16.800000 3.637307  0.000000
132 1 0.000000 21.000000 3.637307  0.000000
133 17 0.000000 0.000000 6.062178  0.000000
134 5 0.000000 4.200000 6.062178  0.000000
135 5 0.000000 8.400000 6.062178  0.000000
136 5 0.000000 12.600000 6.062178  0.000000
137 5 0.000000 16.800000 6.062178  0.000000
138 1 0.000000 21.000000 6.062178  0.000000
139 17 0.000000 0.000000 8.487049  0.000000
140 1 0.000000 4.200000 8.487049  0.000000
141 1 0.000000 8.400000 8.487049  0.000000
142 5 0.000000 12.600000 8.487049  0.000000
143 5 0.000000 16.800000 8.487049  0.000000
144 5 0.000000 21.000000 8.487049  0.000000
145 17 0.000000 0.000000 10.911920  0.000000
146 5 0.000000 4.200000 10.911920  0.000000
147 5 0.000000 8.400000 10.911920  0.000000
148 1 0.000000 12.600000 10.911920  0.000000
149 1 0.000000 16.800000 10.911920  0.000000
150 1 0.000000 21.000000 10.911920  0.000000
151 17 0.000000 0.000000 13.336791  0.000000
152 1 0.000000 4.200000 13.336791  0.000000
153 5 0.000000 8.400000 13.336791  0.000000
154 1 0.000000 12.600000 13.336791  0.000000
155 5 0.000000 16.800000 13.336791  0.000000
156 1 0.000000 21.000000 13.336791  0.000000
157 17 0.000000 0.000000 15.761662  0.000000
158 1 0.000000 4.200000 15.761662  0.000000
159 5 0.000000 8.400000 15.761662  0.000000
160 1 0.000000 12.600000 15.761662  0.000000
161 1 0.000000 16.800000 15.761662  0.000000
162 1 0.000000 21.000000 15.761662  0.000000
163 17 0.000000 0.000000 18.186533  0.000000
164 5 0.000000 4.200000 18.186533  0.000000
165 1 0.000000 8.400000 18.186533  0.000000
166 1 0.000000 12.600000 18.186533  0.000000
167 5 0.000000 16.800000 18.186533  0.000000
168 1 0.000000 21.000000 18.186533  0.000000
169 17 0.000000 0.000000 20.611405  0.000000
170 5 0.000000 4.200000 20.611405  0.000000
171 1 0.000000 8.400000 20.611405  0.000000
172 1 0.000000 12.600000 20.611405  0.000000
173 1 0.000000 16.800000 20.611405  0.000000
174 1 0.000000 21.000000 20.611405  0.000000
175 17 0.000000 0.000000 23.036276  0.000000
176 1 0.000000 4.200000 23.036276  0.000000
177 1 0.000000 8.400000 23.036276  0.000000
178 5 0.000000 12.600000 23.036276  0.000000
179 1 0.000000 16.800000 23.036276  0.000000
180 1 0.000000 21.000000 23.036276  0.000000
181 5 0.000000 2.800000 1.212436  0.000000
182 1 0.000000 7.000000 1.212436  0.000000
183 1 0.000000 11.200000 1.212436  0.000000
184 1 0.000000 15.400000 1.212436  0.000000
185 1 0.000000 19.600000 1.212436  0.000000
186 17 0.000000 23.800000 1.212436  0.000000
187 1 0.000000 2.800000 3.637307  0.000000
188 1 0.000000 7.000000 3.637307  0.000000
189 5 0.000000 11.200000 3.637307  0.000000
190 5 0.000000 15.400000 3.637307  0.000000
191 1 0.000000 19.600000 3.637307  0.000000
192 17 0.000000 23.800000 3.637307  0.000000
193 1 0.000000 2.800000 6.062178  0.000000
194 1 0.000000 7.000000 6.062178  0.000000
195 1 0.000000 11.200000 6.062178  0.000000
196 1 0.000000 15.400000 6.062178  0.000000
197 1 0.000000 19.600000 6.062178  0.000000
198 17 0.000000 23.800000 6.062178  0.000000
199 1 0.000000 2.800000 8.487049  0.000000
200 1 0.000000 7.000000 8.487049  0.000000
201 1 0.000000 11.200000 8.487049  0.000000
202 1 0.000000 15.400000 8.487049  0.000000
203 1 0.000000 19.600000 8.487049  0.000000
204 17 0.000000 23.800000 8.487049  0.000000
205 1 0.000000 2.800000 10.911920  0.000000
206 1 0.000000 7.000000 10.911920  0.000000
207 1 0.000000 11.200000 10.911920  0.000000
208 5 0.000000 15.400000 10.911920  0.000000
209 5 0.000000 19.600000 10.911920  0.000000
210 17 0.000000 23.800000 10.911920  0.000000
211 1 0.000000 2.800000 13.336791  0.000000
212 5 0.000000 7.000000 13.336791  0.000000
213 5 0.000000 11.200000 13.336791  0.000000
214 1 0.000000 15.400000 13.336791  0.000000
215 5 0.000000 19.600000 13.336791  0.000000
216 17 0.000000 23.800000 13.336791  0.000000
217 1 0.000000 2.800000 15.761662  0.000000
218 1 0.000000 7.000000 15.761662  0.000000
219 1 0.000000 11.200000 15.761662  0.000000
220 1 0.000000 15.400000 15.761662  0.000000
221 1 0.000000 19.600000 15.761662  0.000000
222 17 0.000000 23.800000 15.761662  0.000000
223 1 0.000000 2.800000 18.186533  0.000000
224 5 0.000000 7.000000 18.186533  0.000000
225 5 0.000000 11.200000 18.186533  0.000000
226 1 0.000000 15.400000 18.186533  0.000000
227 1 0.000000 19.600000 18.186533  0.000000
228 17 0.000000 23.800000 18.186533  0.000000
229 1 0.000000 2.800000 20.611405  0.000000
230 1 0.000000 7.000000 20.611405  0.000000
231 1 0.000000 11.200000 20.611405  0.000000
232 5 0.000000 15.400000 20.611405  0.000000
233 1 0.000000 19.600000 20.611405  0.000000
234 17 0.000000 23.800000 20.611405  0.000000
235 1 0.000000 2.800000 23.036276  0.000000
236 5 0.000000 7.000000 23.036276  0.000000
237 1 0.000000 11.200000 23.036276  0.000000
238 1 0.000000 15.400000 23.036276  0.000000
239 1 0.000000 19.600000 23.036276  0.000000
240 17 0.000000 23.800000 23.036276  0.000000
241 10 0.000000 16.800000 18.186533  -1.350000
242 14 0.000000 15.892302 18.186533  -1.662545
243 10 0.000000 8.400000 13.336791  -1.350000
244 14 0.000000 7.492302 13.336791  -1.662545
245 10 0.000000 4.200000 6.062178  -1.350000
246 14 0.000000 3.292302 6.062178  -1.662545
247 10 0.000000 2.100000 14.549227  -1.350000
248 14 0.000000 1.192302 14.549227  -1.662545
249 10 0.000000 21.700000 19.398969  -1.350000
250 14 0.000000 20.792302 19.398969  -1.662545
251 10 0.000000 14.700000 19.398969  -1.350000
252 14 0.000000 13.792302 19.398969  -1.662545
253 10 0.000000 23.100000 4.849742  -1.350000
254 14 0.000000 22.192302 4.849742  -1.662545
255 10 0.000000 2.100000 12.124356  1.350000
256 14 0.000000 1.192302 12.124356  1.662545
257 10 0.000000 10.500000 9.699485  -1.350000
258 14 0.000000 9.592302 9.699485  -1.662545
259 10 0.000000 15.400000 3.637307  -1.350000
260 14 0.000000 14.492302 3.637307  -1.662545
261 10 0.000000 11.200000 3.637307  -1.350000
262 14 0.000000 10.292302 3.637307  -1.662545
263 10 0.000000 21.700000 2.424871  1.350000
264 14 0.000000 20.792302 2.424871  1.662545
265 10 0.000000 8.400000 6.062178  -1.350000
266 14 0.000000 7.492302 6.062178  -1.662545
267 10 0.000000 13.300000 16.974098  -1.350000
268 14 0.000000 12.392302 16.974098  -1.662545
269 10 0.000000 2.800000 1.212436  -1.350000
270 14 0.000000 1.892302 1.212436  -1.662545
271 10 0.000000 21.700000 9.699485  1.350000
272 14 0.000000 20.792302 9.699485  1.662545
273 10 0.000000 6.300000 9.699485  1.350000
274 14 0.000000 5.392302 9.699485  1.662545
275 10 0.000000 4.200000 18.186533  -1.350000
276 14 0.000000 3.292302 18.186533  -1.662545
277 10 0.000000 9.100000 0.000000  -1.350000
278 14 0.000000 8.192302 0.000000  -1.662545
279 10 0.000000 16.800000 6.062178  -1.350000
280 14 0.000000 15.892302 6.062178  -1.662545
281 10 0.000000 7.000000 18.186533  -1.350000
282 14 0.000000 6.092302 18.186533  -1.662545
283 10 0.000000 14.700000 9.699485  -1.350000
284 14 0.000000 13.792302 9.699485  -1.662545
285 10 0.000000 17.500000 7.274613  1.350000
286 14 0.000000 16.592302 7.274613  1.662545
287 10 0.000000 4.200000 10.911920  1.350000
288 14 0.000000 3.292302 10.911920  1.662545
289 10 0.000000 8.400000 10.911920  1.350000
290 14 0.000000 7.492302 10.911920  1.662545
291 10 0.000000 2.100000 4.849742  -1.350000
292 14 0.000000 1.192302 4.849742  -1.662545
293 10 0.000000 16.800000 8.487049  -1.350000
294 14 0.000000 15.892302 8.487049  -1.662545
295 10 0.000000 16.800000 13.336791  -1.350000
296 14 0.000000 15.892302 13.336791  -1.662545
297 10 0.000000 6.300000 4.849742  -1.350000
298 14 0.000000 5.392302 4.849742  -1.662545
299 10 0.000000 4.200000 20.611405  1.350000
300 14 0.000000 3.292302 20.611405  1.662545
301 10 0.000000 6.300000 2.424871  1.350000
302 14 0.000000 5.392302 2.424871  1.662545
303 10 0.000000 18.900000 7.274613  -1.350000
304 14 0.000000 17.992302 7.274613  -1.662545
305 10 0.000000 15.400000 10.911920  1.350000
306 14 0.000000 14.492302 10.911920  1.662545
307 10 0.000000 11.200000 13.336791  1.350000
308 14 0.000000 10.292302 13.336791  1.662545
309 10 0.000000 4.900000 14.549227  1.350000
310 14 0.000000 3.992302 14.549227  1.662545
311 10 0.000000 15.400000 20.611405  1.350000
312 14 0.000000 14.492302 20.611405  1.662545
313 10 0.000000 7.000000 13.336791  1.350000
314 14 0.000000 6.092302 13.336791  1.662545
315 10 0.000000 21.000000 8.487049  -1.350000
316 14 0.000000 20.092302 8.487049  -1.662545
317 10 0.000000 12.600000 8.487049  -1.350000
318 14 0.000000 11.692302 8.487049  -1.662545
319 10 0.000000 14.700000 4.849742  1.350000
320 14 0.000000 13.792302 4.849742  1.662545
321 10 0.000000 21.700000 12.124356  1.350000
322 14 0.000000 20.792302 12.124356  1.662545
323 10 0.000000 12.600000 6.062178  1.350000
324 14 0.000000 11.692302 6.062178  1.662545
325 10 0.000000 6.300000 0.000000  1.350000
326 14 0.000000 5.392302 0.000000  1.662545
327 10 0.000000 11.200000 18.186533  -1.350000
328 14 0.000000 10.292302 18.186533  -1.662545
329 10 0.000000 21.700000 4.849742  1.350000
330 14 0.000000 20.792302 4.849742  1.662545
331 10 0.000000 21.700000 14.549227  1.350000
332 14 0.000000 20.792302 14.549227  1.662545
333 10 0.000000 19.600000 10.911920  1.350000
334 14 0.000000 18.692302 10.911920  1.662545
335 10 0.000000 4.900000 12.124356  -1.350000
336 14 0.000000 3.992302 12.124356  -1.662545
337 10 0.000000 14.700000 0.000000  1.350000
338 14 0.000000 13.792302 0.000000  1.662545
339 10 0.000000 0.700000 21.823840  -1.350000
340 14 0.000000 -0.207698 21.823840  -1.662545
341 10 0.000000 16.800000 1.212436  -1.350000
342 14 0.000000 15.892302 1.212436  -1.662545
343 10 0.000000 12.600000 23.036276  -1.350000
344 14 0.000000 11.692302 23.036276  -1.662545
345 10 0.000000 18.900000 12.124356  -1.350000
346 14 0.000000 17.992302 12.124356  -1.662545
347 10 0.000000 17.500000 21.823840  -1.350000
348 14 0.000000 16.592302 21.823840  -1.662545
349 10 0.000000 14.700000 7.274613  1.350000
350 14 0.000000 13.792302 7.274613  1.662545
351 10 0.000000 17.500000 2.424871  1.350000
352 14 0.000000 16.592302 2.424871  1.662545
353 10 0.000000 23.100000 21.823840  -1.350000
354 14 0.000000 22.192302 21.823840  -1.662545
355 10 0.000000 12.600000 1.212436  -1.350000
356 14 0.000000 11.692302 1.212436  -1.662545
357 10 0.000000 17.500000 14.549227  1.350000
358 14 0.000000 16.592302 14.549227  1.662545
359 10 0.000000 9.100000 2.424871  -1.350000
360 14 0.000000 8.192302 2.424871  -1.662545
361 10 0.000000 21.700000 0.000000  1.350000
362 14 0.000000 20.792302 0.000000  1.662545
363 10 0.000000 7.000000 23.036276  -1.350000
364 14 0.000000 6.092302 23.036276  -1.662545
365 10 0.000000 9.100000 19.398969  1.350000
366 14 0.000000 8.192302 19.398969  1.662545
367 10 0.000000 17.500000 9.699485  1.350000
368 14 0.000000 16.592302 9.699485  1.662545
369 10 0.000000 19.600000 13.336791  1.350000
370 14 0.000000 18.692302 13.336791  1.662545
371 10 0.000000 14.700000 2.424871  1.350000
372 14 0.000000 13.792302 2.424871  1.662545
373 10 0.000000 8.400000 15.761662  -1.350000
374 14 0.000000 7.492302 15.761662  -1.662545
375 10 0.000000 14.700000 16.974098  1.350000
376 14 0.000000 13.792302 16.974098  1.662545
377 10 0.000000 6.300000 7.274613  -1.350000
378 14 0.000000 5.392302 7.274613  -1.662545
379 10 0.000000 23.100000 14.549227  -1.350000
380 14 0.000000 22.192302 14.549227  -1.662545
381 10 0.000000 6.300000 14.549227  -1.350000
382 14 0.000000 5.392302 14.549227  -1.662545
383 10 0.000000 18.900000 19.398969  1.350000
384 14 0.000000 17.992302 19.398969  1.662545
385 1 0.000000 0.700000 0.000000  9.100000
386 1 0.000000 4.900000 0.000000  9.100000
387 5 0.000000 9.100000 0.000000  9.100000
388 1 0.000000 13.300000 0.000000  9.100000
389 1 0.000000 17.500000 0.000000  9.100000
390 5 0.000000 21.700000 0.000000  9.100000
391 1 0.000000 0.700000 2.424871  9.100000
392 1 0.000000 4.900000 2.424871  9.100000
393 5 0.000000 9.100000 2.424871  9.100000
394 1 0.000000 13.300000 2.424871  9.100000
395 5 0.000000 17.500000 2.424871  9.100000
396 5 0.000000 21.700000 2.424871  9.100000
397 1 0.000000 0.700000 4.849742  9.100000
398 1 0.000000 4.900000 4.849742  9.100000
399 1 0.000000 9.100000 4.849742  9.100000
400 1 0.000000 13.300000 4.849742  9.100000
401 1 0.000000 17.500000 4.849742  9.100000
402 5 0.000000 21.700000 4.849742  9.100000
403 1 0.000000 0.700000 7.274613  9.100000
404 1 0.000000 4.900000 7.274613  9.100000
405 1 0.000000 9.100000 7.274613  9.100000
406 1 0.000000 13.300000 7.274613  9.100000
407 5 0.000000 17.500000 7.274613  9.100000
408 1 0.000000 21.700000 7.274613  9.100000
409 1 0.000000 0.700000 9.699485  9.100000
410 1 0.000000 4.900000 9.699485  9.100000
411 1 0.000000 9.100000 9.699485  9.100000
412 1 0.000000 13.300000 9.699485  9.100000
413 5 0.000000 17.500000 9.699485  9.100000
414 5 0.000000 21.700000 9.699485  9.100000
415 1 0.000000 0.700000 12.124356  9.100000
416 5 0.000000 4.900000 12.124356  9.100000
417 1 0.000000 9.100000 12.124356  9.100000
418 1 0.000000 13.300000 12.124356  9.100000
419 1 0.000000 17.500000 12.124356  9.100000
420 5 0.000000 21.700000 12.124356  9.100000
421 1 0.000000 0.700000 14.549227  9.100000
422 5 0.000000 4.900000 14.549227  9.100000
423 1 0.000000 9.100000 14.549227  9.100000
424 1 0.000000 13.300000 14.549227  9.100000
425 5 0.000000 17.500000 14.549227  9.100000
426 5 0.000000 21.700000 14.549227  9.100000
427 1 0.000000 0.700000 16.974098  9.100000
428 1 0.000000 4.900000 16.974098  9.100000
429 1 0.000000 9.100000 16.974098  9.100000
430 5 0.000000 13.300000 16.974098  9.100000
431 1 0.000000 17.500000 16.974098  9.100000
432 1 0.000000 21.700000 16.974098  9.100000
433 1 0.000000 0.700000 19.398969  9.100000
434 1 0.000000 4.900000 19.398969  9.100000
435 5 0.000000 9.100000 19.398969  9.100000
436 1 0.000000 13.300000 19.398969  9.100000
437 1 0.000000 17.500000 19.398969  9.100000
438 5 0.000000 21.700000 19.398969  9.100000
439 5 0.000000 0.700000 21.823840  9.100000
440 1 0.000000 4.900000 21.823840  9.100000
441 1 0.000000 9.100000 21.823840  9.100000
442 1 0.000000 13.300000 21.823840  9.100000
443 5 0.000000 17.500000 21.823840  9.100000
444 1 0.000000 21.700000 21.823840  9.100000
445 1 0.000000 2.100000 0.000000  9.100000
446 5 0.000000 6.300000 0.000000  9.100000
447 1 0.000000 10.500000 0.000000  9.100000
448 5 0.000000 14.700000 0.000000  9.100000
449 1 0.000000 18.900000 0.000000  9.100000
450 1 0.000000 23.100000 0.000000  9.100000
451 1 0.000000 2.100000 2.424871  9.100000
452 5 0.000000 6.300000 2.424871  9.100000
453 1 0.000000 10.500000 2.424871  9.100000
454 5 0.000000 14.700000 2.424871  9.100000
455 1 0.000000 18.900000 2.424871  9.100000
456 1 0.000000 23.100000 2.424871  9.100000
457 5 0.000000 2.100000 4.849742  9.100000
458 5 0.000000 6.300000 4.849742  9.100000
459 1 0.000000 10.500000 4.849742  9.100000
460 5 0.000000 14.700000 4.849742  9.100000
461 1 0.000000 18.900000 4.849742  9.100000
462 5 0.000000 23.100000 4.849742  9.100000
463 1 0.000000 2.100000 7.274613  9.100000
464 5 0.000000 6.300000 7.274613  9.100000
465 1 0.000000 10.500000 7.274613  9.100000
466 5 0.000000 14.700000 7.274613  9.100000
467 5 0.000000 18.900000 7.274613  9.100000
468 1 0.000000 23.100000 7.274613  9.100000
469 1 0.000000 2.100000 9.699485  9.100000
470 5 0.000000 6.300000 9.699485  9.100000
471 5 0.000000 10.500000 9.699485  9.100000
472 5 0.000000 14.700000 9.699485  9.100000
473 1 0.000000 18.900000 9.699485  9.100000
474 1 0.000000 23.100000 9.699485  9.100000
475 5 0.000000 2.100000 12.124356  9.100000
476 1 0.000000 6.300000 12.124356  9.100000
477 1 0.000000 10.500000 12.124356  9.100000
478 1 0.000000 14.700000 12.124356  9.100000
479 5 0.000000 18.900000 12.124356  9.100000
480 1 0.000000 23.100000 12.124356  9.100000
481 5 0.000000 2.100000 14.549227  9.100000
482 5 0.000000 6.300000 14.549227  9.100000
483 1 0.000000 10.500000 14.549227  9.100000
484 1 0.000000 14.700000 14.549227  9.100000
485 1 0.000000 18.900000 14.549227  9.100000
486 5 0.000000 23.100000 14.549227  9.100000
487 1 0.000000 2.100000 16.974098  9.100000
488 1 0.000000 6.300000 16.974098  9.100000
489 1 0.000000 10.500000 16.974098  9.100000
490 5 0.000000 14.700000 16.974098  9.100000
491 1 0.000000 18.900000 16.974098  9.100000
492 1 0.000000 23.100000 16.974098  9.100000
493 1 0.000000 2.100000 19.398969  9.100000
494 1 0.000000 6.300000 19.398969  9.100000
495 1 0.000000 10.500000 19.398969  9.100000
496 5 0.000000 14.700000 19.398969  9.100000
497 5 0.000000 18.900000 19.398969  9.100000
498 1 0.000000 23.100000 19.398969  9.100000
499 1 0.000000 2.100000 21.823840  9.100000
500 1 0.000000 6.300000 21.823840  9.100000
501 1 0.000000 10.500000 21.823840  9.100000
502 1 0.000000 14.700000 21.823840  9.100000
503 1 0.000000 18.900000 21.823840  9.100000
504 5 0.000000 23.100000 21.823840  9.100000
505 17 0.000000 0.000000 1.212436  9.100000
506 1 0.000000 4.200000 1.212436  9.100000
507 1 0.000000 8.400000 1.212436  9.100000
508 5 0.000000 12.600000 1.212436  9.100000
509 5 0.000000 16.800000 1.212436  9.100000
510 1 0.000000 21.000000 1.212436  9.100000
511 17 0.000000 0.000000 3.637307  9.100000
512 1 0.000000 4.200000 3.637307  9.100000
513 1 0.000000 8.400000 3.637307  9.100000
514 1 0.000000 12.600000 3.637307  9.100000
515 1 0.000000 16.800000 3.637307  9.100000
516 1 0.000000 21.000000 3.637307  9.100000
517 17 0.000000 0.000000 6.062178  9.100000
518 5 0.000000 4.200000 6.062178  9.100000
519 5 0.000000 8.400000 6.062178  9.100000
520 5 0.000000 12.600000 6.062178  9.100000
521 5 0.000000 16.800000 6.062178  9.100000
522 1 0.000000 21.000000 6.062178  9.100000
523 17 0.000000 0.000000 8.487049  9.100000
524 1 0.000000 4.200000 8.487049  9.100000
525 1 0.000000 8.400000 8.487049  9.100000
526 5 0.000000 12.600000 8.487049  9.100000
527 5 0.000000 16.800000 8.487049  9.100000
528 5 0.000000 21.000000 8.487049  9.100000
529 17 0.000000 0.000000 10.911920  9.100000
530 5 0.000000 4.200000 10.911920  9.100000
531 5 0.000000 8.400000 10.911920  9.100000
532 1 0.000000 12.600000 10.911920  9.100000
533 1 0.000000 16.800000 10.911920  9.100000
534 1 0.000000 21.000000 10.911920  9.100000
535 17 0.000000 0.000000 13.336791  9.100000
536 1 0.000000 4.200000 13.336791  9.100000
537 5 0.000000 8.400000 13.336791  9.100000
538 1 0.000000 12.600000 13.336791  9.100000
539 5 0.000000 16.800000 13.336791  9.100000
540 1 0.000000 21.000000 13.336791  9.100000
541 17 0.000000 0.000000 15.761662  9.100000
542 1 0.000000 4.200000 15.761662  9.100000
543 5 0.000000 8.400000 15.761662  9.100000
544 1 0.000000 12.600000 15.761662  9.100000
545 1 0.000000 16.800000 15.761662  9.100000
546 1 0.000000 21.000000 15.761662  9.100000
547 17 0.000000 0.000000 18.186533  9.100000
548 5 0.000000 4.200000 18.186533  9.100000
549 1 0.000000 8.400000 18.186533  9.100000
550 1 0.000000 12.600000 18.186533  9.100000
551 5 0.000000 16.800000 18.186533  9.100000
552 1 0.000000 21.000000 18.186533  9.100000
553 17 0.000000 0.000000 20.611405  9.100000
554 5 0.000000 4.200000 20.611405  9.100000
555 1 0.000000 8.400000 20.611405  9.100000
556 1 0.000000 12.600000 20.611405  9.100000
557 1 0.000000 16.800000 20.611405  9.100000
558 1 0.000000 21.000000 20.611405  9.100000
559 17 0.000000 0.000000 23.036276  9.100000
560 1 0.000000 4.200000 23.036276  9.100000
561 1 0.000000 8.400000 23.036276  9.100000
562 5 0.000000 12.600000 23.036276  9.100000
563 1 0.000000 16.800000 23.036276  9.100000
564 1 0.000000 21.000000 23.036276  9.100000
565 5 0.000000 2.800000 1.212436  9.100000
566 1 0.000000 7.000000 1.212436  9.100000
567 1 0.000000 11.200000 1.212436  9.100000
568 1 0.000000 15.400000 1.212436  9.100000
569 1 0.000000 19.600000 1.212436  9.100000
570 17 0.000000 23.800000 1.212436  9.100000
571 1 0.000000 2.800000 3.637307  9.100000
572 1 0.000000 7.000000 3.637307  9.100000
573 5 0.000000 11.200000 3.637307  9.100000
574 5 0.000000 15.400000 3.637307  9.100000
575 1 0.000000 19.600000 3.637307  9.100000
576 17 0.000000 23.800000 3.637307  9.100000
577 1 0.000000 2.800000 6.062178  9.100000
578 1 0.000000 7.000000 6.062178  9.100000
579 1 0.000000 11.200000 6.062178  9.100000
580 1 0.000000 15.400000 6.062178  9.100000
581 1 0.000000 19.600000 6.062178  9.100000
582 17 0.000000 23.800000 6.062178  9.100000
583 1 0.000000 2.800000 8.487049  9.100000
584 1 0.000000 7.000000 8.487049  9.100000
585 1 0.000000 11.200000 8.487049  9.100000
586 1 0.000000 15.400000 8.487049  9.100000
587 1 0.000000 19.600000 8.487049  9.100000
588 17 0.000000 23.800000 8.487049  9.100000
589 1 0.000000 2.800000 10.911920  9.100000
590 1 0.000000 7.000000 10.911920  9.100000
591 1 0.000000 11.200000 10.911920  9.100000
592 5 0.000000 15.400000 10.911920  9.100000
593 5 0.000000 19.600000 10.911920  9.100000
594 17 0.000000 23.800000 10.911920  9.100000
595 1 0.000000 2.800000 13.336791  9.100000
596 5 0.000000 7.000000 13.336791  9.100000
597 5 0.000000 11.200000 13.336791  9.100000
598 1 0.000000 15.400000 13.336791  9.100000
599 5 0.000000 19.600000 13.336791  9.100000
600 17 0.000000 23.800000 13.336791  9.100000
601 1 0.000000 2.800000 15.761662  9.100000
602 1 0.000000 7.000000 15.761662  9.100000
603 1 0.000000 11.200000 15.761662  9.100000
604 1 0.000000 15.400000 15.761662  9.100000
605 1 0.000000 19.600000 15.761662  9.100000
606 17 0.000000 23.800000 15.761662  9.100000
607 1 0.000000 2.800000 18.186533  9.100000
608 5 0.000000 7.000000 18.186533  9.100000
609 5 0.000000 11.200000 18.186533  9.100000
610 1 0.000000 15.400000 18.186533  9.100000
611 1 0.000000 19.600000 18.186533  9.100000
612 17 0.000000 23.800000 18.186533  9.100000
613 1 0.000000 2.800000 20.611405  9.100000
614 1 0.000000 7.000000 20.611405  9.100000
615 1 0.000000 11.200000 20.611405  9.100000
616 5 0.000000 15.400000 20.611405  9.100000
617 1 0.000000 19.600000 20.611405  9.100000
618 17 0.000000 23.800000 20.611405  9.100000
619 1 0.000000 2.800000 23.036276  9.100000
620 5 0.000000 7.000000 23.036276  9.100000
621 1 0.000000 11.200000 23.036276  9.100000
622 1 0.000000 15.400000 23.036276  9.100000
623 1 0.000000 19.600000 23.036276  9.100000
624 17 0.000000 23.800000 23.036276  9.100000
625 10 0.000000 16.800000 18.186533  7.750000
626 14 0.000000 15.892302 18.186533  7.437455
627 10 0.000000 8.400000 13.336791  7.750000
628 14 0.000000 7.492302 13.336791  7.437455
629 10 0.000000 4.200000 6.062178  7.750000
630 14 0.000000 3.292302 6.062178  7.437455
631 10 0.000000 2.100000 14.549227  7.750000
632 14 0.000000 1.192302 14.549227  7.437455
633 10 0.000000 21.700000 19.398969  7.750000
634 14 0.000000 20.792302 19.398969  7.437455
635 10 0.000000 14.700000 19.398969  7.750000
636 14 0.000000 13.792302 19.398969  7.437455
637 10 0.000000 23.100000 4.849742  7.750000
638 14 0.000000 22.192302 4.849742  7.437455
639 10 0.000000 2.100000 12.124356  10.450000
640 14 0.000000 1.192302 12.124356  10.762545
641 10 0.000000 10.500000 9.699485  7.750000
642 14 0.000000 9.592302 9.699485  7.437455
643 10 0.000000 15.400000 3.637307  7.750000
644 14 0.000000 14.492302 3.637307  7.437455
645 10 0.000000 11.200000 3.637307  7.750000
646 14 0.000000 10.292302 3.637307  7.437455
647 10 0.000000 21.700000 2.424871  10.450000
648 14 0.000000 20.792302 2.424871  10.762545
649 10 0.000000 8.400000 6.062178  7.750000
650 14 0.000000 7.492302 6.062178  7.437455
651 10 0.000000 13.300000 16.974098  7.750000
652 14 0.000000 12.392302 16.974098  7.437455
653 10 0.000000 2.800000 1.212436  7.750000
654 14 0.000000 1.892302 1.212436  7.437455
655 10 0.000000 21.700000 9.699485  10.450000
656 14 0.000000 20.792302 9.699485  10.762545
657 10 0.000000 6.300000 9.699485  10.450000
658 14 0.000000 5.392302 9.699485  10.762545
659 10 0.000000 4.200000 18.186533  7.750000
660 14 0.000000 3.292302 18.186533  7.437455
661 10 0.000000 9.100000 0.000000  7.750000
662 14 0.000000 8.192302 0.000000  7.437455
663 10 0.000000 16.800000 6.062178  7.750000
664 14 0.000000 15.892302 6.062178  7.437455
665 10 0.000000 7.000000 18.186533  7.750000