# LAMMPS data file written by Ovito Basic 3.0.0-dev791
272 atoms
2 atom types
0.0 10.5173940659 xlo xhi
0.0 10.5173940659 ylo yhi
0.0 28.0463848114 zlo zhi

Atoms  # charge

1 1 0.0 0.0 0.0 0.876449466
2 1 0.0 0.0 0.0 4.382246971
3 1 0.0 0.0 0.0 7.888044834
4 1 0.0 0.0 0.0 11.393842697
5 1 0.0 0.0 3.505797863 0.876449466
6 1 0.0 0.0 3.505797863 4.382246971
7 1 0.0 0.0 3.505797863 7.888044834
8 1 0.0 0.0 3.505797863 11.393842697
9 1 0.0 0.0 7.011595726 0.876449466
10 1 0.0 0.0 7.011595726 4.382246971
11 1 0.0 0.0 7.011595726 7.888044834
12 1 0.0 0.0 7.011595726 11.393842697
13 1 0.0 3.505797863 0.0 0.876449466
14 1 0.0 3.505797863 0.0 4.382246971
15 1 0.0 3.505797863 0.0 7.888044834
16 1 0.0 3.505797863 0.0 11.393842697
17 1 0.0 3.505797863 3.505797863 0.876449466
18 1 0.0 3.505797863 3.505797863 4.382246971
19 1 0.0 3.505797863 3.505797863 7.888044834
20 1 0.0 3.505797863 3.505797863 11.393842697
21 1 0.0 3.505797863 7.011595726 0.876449466
22 1 0.0 3.505797863 7.011595726 4.382246971
23 1 0.0 3.505797863 7.011595726 7.888044834
24 1 0.0 3.505797863 7.011595726 11.393842697
25 1 0.0 7.011595726 0.0 0.876449466
26 1 0.0 7.011595726 0.0 4.382246971
27 1 0.0 7.011595726 0.0 7.888044834
28 1 0.0 7.011595726 0.0 11.393842697
29 1 0.0 7.011595726 3.505797863 0.876449466
30 1 0.0 7.011595726 3.505797863 4.382246971
31 1 0.0 7.011595726 3.505797863 7.888044834
32 1 0.0 7.011595726 3.505797863 11.393842697
33 1 0.0 7.011595726 7.011595726 0.876449466
34 1 0.0 7.011595726 7.011595726 4.382246971
35 1 0.0 7.011595726 7.011595726 7.888044834
36 1 0.0 7.011595726 7.011595726 11.393842697
37 1 0.0 0.0 1.752898932 2.629348278
38 1 0.0 0.0 1.752898932 6.135146141
39 1 0.0 0.0 1.752898932 9.640943527
40 1 0.0 0.0 1.752898932 13.146741867
41 1 0.0 0.0 5.258696556 2.629348278
42 1 0.0 0.0 5.258696556 6.135146141
43 1 0.0 0.0 5.258696556 9.640943527
44 1 0.0 0.0 5.258696556 13.146741867
45 1 0.0 0.0 8.76449585 2.629348278
46 1 0.0 0.0 8.76449585 6.135146141
47 1 0.0 0.0 8.76449585 9.640943527
48 1 0.0 0.0 8.76449585 13.146741867
49 1 0.0 3.505797863 1.752898932 2.629348278
50 1 0.0 3.505797863 1.752898932 6.135146141
51 1 0.0 3.505797863 1.752898932 9.640943527
52 1 0.0 3.505797863 1.752898932 13.146741867
53 1 0.0 3.505797863 5.258696556 2.629348278
54 1 0.0 3.505797863 5.258696556 6.135146141
55 1 0.0 3.505797863 5.258696556 9.640943527
56 1 0.0 3.505797863 5.258696556 13.146741867
57 1 0.0 3.505797863 8.76449585 2.629348278
58 1 0.0 3.505797863 8.76449585 6.135146141
59 1 0.0 3.505797863 8.76449585 9.640943527
60 1 0.0 3.505797863 8.76449585 13.146741867
61 1 0.0 7.011595726 1.752898932 2.629348278
62 1 0.0 7.011595726 1.752898932 6.135146141
63 1 0.0 7.011595726 1.752898932 9.640943527
64 1 0.0 7.011595726 1.752898932 13.146741867
65 1 0.0 7.011595726 5.258696556 2.629348278
66 1 0.0 7.011595726 5.258696556 6.135146141
67 1 0.0 7.011595726 5.258696556 9.640943527
68 1 0.0 7.011595726 5.258696556 13.146741867
69 1 0.0 7.011595726 8.76449585 2.629348278
70 1 0.0 7.011595726 8.76449585 6.135146141
71 1 0.0 7.011595726 8.76449585 9.640943527
72 1 0.0 7.011595726 8.76449585 13.146741867
73 1 0.0 1.752898932 0.0 2.629348278
74 1 0.0 1.752898932 0.0 6.135146141
75 1 0.0 1.752898932 0.0 9.640943527
76 1 0.0 1.752898932 0.0 13.146741867
77 1 0.0 1.752898932 3.505797863 2.629348278
78 1 0.0 1.752898932 3.505797863 6.135146141
79 1 0.0 1.752898932 3.505797863 9.640943527
80 1 0.0 1.752898932 3.505797863 13.146741867
81 1 0.0 1.752898932 7.011595726 2.629348278
82 1 0.0 1.752898932 7.011595726 6.135146141
83 1 0.0 1.752898932 7.011595726 9.640943527
84 1 0.0 1.752898932 7.011595726 13.146741867
85 1 0.0 5.258696556 0.0 2.629348278
86 1 0.0 5.258696556 0.0 6.135146141
87 1 0.0 5.258696556 0.0 9.640943527
88 1 0.0 5.258696556 0.0 13.146741867
89 1 0.0 5.258696556 3.505797863 2.629348278
90 1 0.0 5.258696556 3.505797863 6.135146141
91 1 0.0 5.258696556 3.505797863 9.640943527
92 1 0.0 5.258696556 3.505797863 13.146741867
93 1 0.0 5.258696556 7.011595726 2.629348278
94 1 0.0 5.258696556 7.011595726 6.135146141
95 1 0.0 5.258696556 7.011595726 9.640943527
96 1 0.0 5.258696556 7.011595726 13.146741867
97 1 0.0 8.76449585 0.0 2.629348278
98 1 0.0 8.76449585 0.0 6.135146141
99 1 0.0 8.76449585 0.0 9.640943527
100 1 0.0 8.76449585 0.0 13.146741867
101 1 0.0 8.76449585 3.505797863 2.629348278
102 1 0.0 8.76449585 3.505797863 6.135146141
103 1 0.0 8.76449585 3.505797863 9.640943527
104 1 0.0 8.76449585 3.505797863 13.146741867
105 1 0.0 8.76449585 7.011595726 2.629348278
106 1 0.0 8.76449585 7.011595726 6.135146141
107 1 0.0 8.76449585 7.011595726 9.640943527
108 1 0.0 8.76449585 7.011595726 13.146741867
109 1 0.0 1.752898932 1.752898932 0.876449466
110 1 0.0 1.752898932 1.752898932 4.382246971
111 1 0.0 1.752898932 1.752898932 7.888044834
112 1 0.0 1.752898932 1.752898932 11.393842697
113 1 0.0 1.752898932 5.258696556 0.876449466
114 1 0.0 1.752898932 5.258696556 4.382246971
115 1 0.0 1.752898932 5.258696556 7.888044834
116 1 0.0 1.752898932 5.258696556 11.393842697
117 1 0.0 1.752898932 8.76449585 0.876449466
118 1 0.0 1.752898932 8.76449585 4.382246971
119 1 0.0 1.752898932 8.76449585 7.888044834
120 1 0.0 1.752898932 8.76449585 11.393842697
121 1 0.0 5.258696556 1.752898932 0.876449466
122 1 0.0 5.258696556 1.752898932 4.382246971
123 1 0.0 5.258696556 1.752898932 7.888044834
124 1 0.0 5.258696556 1.752898932 11.393842697
125 1 0.0 5.258696556 5.258696556 0.876449466
126 1 0.0 5.258696556 5.258696556 4.382246971
127 1 0.0 5.258696556 5.258696556 7.888044834
128 1 0.0 5.258696556 5.258696556 11.393842697
129 1 0.0 5.258696556 8.76449585 0.876449466
130 1 0.0 5.258696556 8.76449585 4.382246971
131 1 0.0 5.258696556 8.76449585 7.888044834
132 1 0.0 5.258696556 8.76449585 11.393842697
133 1 0.0 8.76449585 1.752898932 0.876449466
134 1 0.0 8.76449585 1.752898932 4.382246971
135 1 0.0 8.76449585 1.752898932 7.888044834
136 1 0.0 8.76449585 1.752898932 11.393842697
137 1 0.0 8.76449585 5.258696556 0.876449466
138 1 0.0 8.76449585 5.258696556 4.382246971
139 1 0.0 8.76449585 5.258696556 7.888044834
140 1 0.0 8.76449585 5.258696556 11.393842697
141 1 0.0 8.76449585 8.76449585 0.876449466
142 1 0.0 8.76449585 8.76449585 4.382246971
143 1 0.0 8.76449585 8.76449585 7.888044834
144 1 0.0 8.76449585 8.76449585 11.393842697
145 2 0.0 10.514121056 10.514121056 14.899640083
146 2 0.0 10.514121056 10.514121056 18.405437469
147 2 0.0 10.514121056 10.514121056 21.911235809
148 2 0.0 10.514121056 10.514121056 25.417034149
149 2 0.0 10.514121056 5.255423546 14.899640083
150 2 0.0 10.514121056 5.255423546 18.405437469
151 2 0.0 10.514121056 5.255423546 21.911235809
152 2 0.0 10.514121056 5.255423546 25.417034149
153 2 0.0 5.255423546 10.514121056 14.899640083
154 2 0.0 5.255423546 10.514121056 18.405437469
155 2 0.0 5.255423546 10.514121056 21.911235809
156 2 0.0 5.255423546 10.514121056 25.417034149
157 2 0.0 5.255423546 5.255423546 14.899640083
158 2 0.0 5.255423546 5.255423546 18.405437469
159 2 0.0 5.255423546 5.255423546 21.911235809
160 2 0.0 5.255423546 5.255423546 25.417034149
161 2 0.0 2.776449919 2.776449919 14.899640083
162 2 0.0 2.776449919 2.776449919 18.405437469
163 2 0.0 2.776449919 2.776449919 21.911235809
164 2 0.0 2.776449919 2.776449919 25.417034149
165 2 0.0 2.776449919 7.734396935 14.899640083
166 2 0.0 2.776449919 7.734396935 18.405437469
167 2 0.0 2.776449919 7.734396935 21.911235809
168 2 0.0 2.776449919 7.734396935 25.417034149
169 2 0.0 7.734396935 2.776449919 14.899640083
170 2 0.0 7.734396935 2.776449919 18.405437469
171 2 0.0 7.734396935 2.776449919 21.911235809
172 2 0.0 7.734396935 2.776449919 25.417034149
173 2 0.0 7.734396935 7.734396935 14.899640083
174 2 0.0 7.734396935 7.734396935 18.405437469
175 2 0.0 7.734396935 7.734396935 21.911235809
176 2 0.0 7.734396935 7.734396935 25.417034149
177 2 0.0 1.536963463 1.536963463 16.652540207
178 2 0.0 1.536963463 1.536963463 20.158336639
179 2 0.0 1.536963463 1.536963463 23.664134979
180 2 0.0 1.536963463 1.536963463 27.169933319
181 2 0.0 1.536963463 6.49491024 16.652540207
182 2 0.0 1.536963463 6.49491024 20.158336639
183 2 0.0 1.536963463 6.49491024 23.664134979
184 2 0.0 1.536963463 6.49491024 27.169933319
185 2 0.0 6.49491024 1.536963463 16.652540207
186 2 0.0 6.49491024 1.536963463 20.158336639
187 2 0.0 6.49491024 1.536963463 23.664134979
188 2 0.0 6.49491024 1.536963463 27.169933319
189 2 0.0 6.49491024 6.49491024 16.652540207
190 2 0.0 6.49491024 6.49491024 20.158336639
191 2 0.0 6.49491024 6.49491024 23.664134979
192 2 0.0 6.49491024 6.49491024 27.169933319
193 2 0.0 4.015936852 4.015936852 16.652540207
194 2 0.0 4.015936852 4.015936852 20.158336639
195 2 0.0 4.015936852 4.015936852 23.664134979
196 2 0.0 4.015936852 4.015936852 27.169933319
197 2 0.0 4.015936852 8.973883629 16.652540207
198 2 0.0 4.015936852 8.973883629 20.158336639
199 2 0.0 4.015936852 8.973883629 23.664134979
200 2 0.0 4.015936852 8.973883629 27.169933319
201 2 0.0 8.973883629 4.015936852 16.652540207
202 2 0.0 8.973883629 4.015936852 20.158336639
203 2 0.0 8.973883629 4.015936852 23.664134979
204 2 0.0 8.973883629 4.015936852 27.169933319
205 2 0.0 8.973883629 8.973883629 16.652540207
206 2 0.0 8.973883629 8.973883629 20.158336639
207 2 0.0 8.973883629 8.973883629 23.664134979
208 2 0.0 8.973883629 8.973883629 27.169933319
209 2 0.0 1.536963463 4.015936852 16.652540207
210 2 0.0 1.536963463 4.015936852 20.158336639
211 2 0.0 1.536963463 4.015936852 23.664134979
212 2 0.0 1.536963463 4.015936852 27.169933319
213 2 0.0 1.536963463 8.973883629 16.652540207
214 2 0.0 1.536963463 8.973883629 20.158336639
215 2 0.0 1.536963463 8.973883629 23.664134979
216 2 0.0 1.536963463 8.973883629 27.169933319
217 2 0.0 6.49491024 4.015936852 16.652540207
218 2 0.0 6.49491024 4.015936852 20.158336639
219 2 0.0 6.49491024 4.015936852 23.664134979
220 2 0.0 6.49491024 4.015936852 27.169933319
221 2 0.0 6.49491024 8.973883629 16.652540207
222 2 0.0 6.49491024 8.973883629 20.158336639
223 2 0.0 6.49491024 8.973883629 23.664134979
224 2 0.0 6.49491024 8.973883629 27.169933319
225 2 0.0 4.015936852 1.536963463 16.652540207
226 2 0.0 4.015936852 1.536963463 20.158336639
227 2 0.0 4.015936852 1.536963463 23.664134979
228 2 0.0 4.015936852 1.536963463 27.169933319
229 2 0.0 4.015936852 6.49491024 16.652540207
230 2 0.0 4.015936852 6.49491024 20.158336639
231 2 0.0 4.015936852 6.49491024 23.664134979
232 2 0.0 4.015936852 6.49491024 27.169933319
233 2 0.0 8.973883629 1.536963463 16.652540207
234 2 0.0 8.973883629 1.536963463 20.158336639
235 2 0.0 8.973883629 1.536963463 23.664134979
236 2 0.0 8.973883629 1.536963463 27.169933319
237 2 0.0 8.973883629 6.49491024 16.652540207
238 2 0.0 8.973883629 6.49491024 20.158336639
239 2 0.0 8.973883629 6.49491024 23.664134979
240 2 0.0 8.973883629 6.49491024 27.169933319
241 2 0.0 2.776449919 10.514121056 14.899640083
242 2 0.0 2.776449919 10.514121056 18.405437469
243 2 0.0 2.776449919 10.514121056 21.911235809
244 2 0.0 2.776449919 10.514121056 25.417034149
245 2 0.0 2.776449919 5.255423546 14.899640083
246 2 0.0 2.776449919 5.255423546 18.405437469
247 2 0.0 2.776449919 5.255423546 21.911235809
248 2 0.0 2.776449919 5.255423546 25.417034149
249 2 0.0 7.734396935 10.514121056 14.899640083
250 2 0.0 7.734396935 10.514121056 18.405437469
251 2 0.0 7.734396935 10.514121056 21.911235809
252 2 0.0 7.734396935 10.514121056 25.417034149
253 2 0.0 7.734396935 5.255423546 14.899640083
254 2 0.0 7.734396935 5.255423546 18.405437469
255 2 0.0 7.734396935 5.255423546 21.911235809
256 2 0.0 7.734396935 5.255423546 25.417034149
257 2 0.0 10.514121056 2.776449919 14.899640083
258 2 0.0 10.514121056 2.776449919 18.405437469
259 2 0.0 10.514121056 2.776449919 21.911235809
260 2 0.0 10.514121056 2.776449919 25.417034149
261 2 0.0 10.514121056 7.734396935 14.899640083
262 2 0.0 10.514121056 7.734396935 18.405437469
263 2 0.0 10.514121056 7.734396935 21.911235809
264 2 0.0 10.514121056 7.734396935 25.417034149
265 2 0.0 5.255423546 2.776449919 14.899640083
266 2 0.0 5.255423546 2.776449919 18.405437469
267 2 0.0 5.255423546 2.776449919 21.911235809
268 2 0.0 5.255423546 2.776449919 25.417034149
269 2 0.0 5.255423546 7.734396935 14.899640083
270 2 0.0 5.255423546 7.734396935 18.405437469
271 2 0.0 5.255423546 7.734396935 21.911235809
272 2 0.0 5.255423546 7.734396935 25.417034149
