# LAMMPS data file written by Ovito Basic 3.0.0-dev791
800 atoms
2 atom types
0.0 2.840051651 xlo xhi
0.0 20.0821971893 ylo yhi
0.0 160.6575775146 zlo zhi

Atoms  # charge

1 1 0.0 0.0 0.0 80.328781128
2 1 0.0 0.0 0.0 100.410972595
3 1 0.0 0.0 0.0 120.493171692
4 1 0.0 0.0 0.0 140.575363159
5 1 0.0 0.0 2.811508179 80.730422974
6 1 0.0 0.0 2.811508179 100.81262207
7 1 0.0 0.0 2.811508179 120.894813538
8 1 0.0 0.0 2.811508179 140.977020264
9 1 0.0 0.0 2.409864902 83.541931152
10 1 0.0 0.0 2.409864902 103.62412262
11 1 0.0 0.0 2.409864902 123.706321716
12 1 0.0 0.0 2.409864902 143.788513184
13 1 0.0 0.0 2.008219957 86.353439331
14 1 0.0 0.0 2.008219957 106.435638428
15 1 0.0 0.0 2.008219957 126.517837524
16 1 0.0 0.0 2.008219957 146.600021362
17 1 0.0 0.0 1.606575251 89.16494751
18 1 0.0 0.0 1.606575251 109.247146606
19 1 0.0 0.0 1.606575251 129.329330444
20 1 0.0 0.0 1.606575251 149.4115448
21 1 0.0 0.0 1.204930663 91.976455688
22 1 0.0 0.0 1.204930663 112.058647156
23 1 0.0 0.0 1.204930663 132.140853882
24 1 0.0 0.0 1.204930663 152.22303772
25 1 0.0 0.0 0.803287029 94.787963867
26 1 0.0 0.0 0.803287029 114.870155334
27 1 0.0 0.0 0.803287029 134.952377319
28 1 0.0 0.0 0.803287029 155.034545898
29 1 0.0 0.0 0.401643515 97.599472046
30 1 0.0 0.0 0.401643515 117.681671143
31 1 0.0 0.0 0.401643515 137.76385498
32 1 0.0 0.0 0.401643515 157.846069336
33 1 0.0 0.0 19.680551529 83.140281677
34 1 0.0 0.0 19.680551529 103.222480774
35 1 0.0 0.0 19.680551529 123.3046875
36 1 0.0 0.0 19.680551529 143.386901855
37 1 0.0 0.0 19.278909683 85.951797485
38 1 0.0 0.0 19.278909683 106.033988953
39 1 0.0 0.0 19.278909683 126.11618042
40 1 0.0 0.0 19.278909683 146.198379517
41 1 0.0 0.0 18.87726593 88.763305664
42 1 0.0 0.0 18.87726593 108.845497131
43 1 0.0 0.0 18.87726593 128.927703857
44 1 0.0 0.0 18.87726593 149.009887695
45 1 0.0 0.0 18.47562027 91.574806213
46 1 0.0 0.0 18.47562027 111.65700531
47 1 0.0 0.0 18.47562027 131.739196777
48 1 0.0 0.0 18.47562027 151.821395874
49 1 0.0 0.0 18.073976517 94.386314392
50 1 0.0 0.0 18.073976517 114.468513489
51 1 0.0 0.0 18.073976517 134.550704956
52 1 0.0 0.0 18.073976517 154.632904053
53 1 0.0 0.0 17.672330856 97.1978302
54 1 0.0 0.0 17.672330856 117.280021667
55 1 0.0 0.0 17.672330856 137.362228394
56 1 0.0 0.0 17.672330856 157.444412231
57 1 0.0 0.0 17.270687103 100.00933075
58 1 0.0 0.0 17.270687103 120.091529846
59 1 0.0 0.0 17.270687103 140.173721313
60 1 0.0 0.0 17.270687103 160.25592041
61 1 0.0 0.0 16.869047165 82.738639832
62 1 0.0 0.0 16.869047165 102.820838928
63 1 0.0 0.0 16.869047165 122.903038025
64 1 0.0 0.0 16.869047165 142.985229492
65 1 0.0 0.0 16.467399597 85.55015564
66 1 0.0 0.0 16.467399597 105.632354736
67 1 0.0 0.0 16.467399597 125.714546204
68 1 0.0 0.0 16.467399597 145.79675293
69 1 0.0 0.0 16.065755844 88.361656189
70 1 0.0 0.0 16.065755844 108.443855286
71 1 0.0 0.0 16.065755844 128.526046753
72 1 0.0 0.0 16.065755844 148.60824585
73 1 0.0 0.0 15.664113045 91.173164368
74 1 0.0 0.0 15.664113045 111.255363464
75 1 0.0 0.0 15.664113045 131.337554932
76 1 0.0 0.0 15.664113045 151.419754028
77 1 0.0 0.0 15.262468338 93.984672546
78 1 0.0 0.0 15.262468338 114.066879272
79 1 0.0 0.0 15.262468338 134.14906311
80 1 0.0 0.0 15.262468338 154.231277466
81 1 0.0 0.0 14.860824585 96.796180725
82 1 0.0 0.0 14.860824585 116.878372192
83 1 0.0 0.0 14.860824585 136.96055603
84 1 0.0 0.0 14.860824585 157.042755127
85 1 0.0 0.0 14.459181786 99.607688904
86 1 0.0 0.0 14.459181786 119.689888
87 1 0.0 0.0 14.459181786 139.772079468
88 1 0.0 0.0 14.459181786 159.854278564
89 1 0.0 0.0 14.057536125 82.336997986
90 1 0.0 0.0 14.057536125 102.419197083
91 1 0.0 0.0 14.057536125 122.50138855
92 1 0.0 0.0 14.057536125 142.583587646
93 1 0.0 0.0 13.655893326 85.148498535
94 1 0.0 0.0 13.655893326 105.230697632
95 1 0.0 0.0 13.655893326 125.312896729
96 1 0.0 0.0 13.655893326 145.395095825
97 1 0.0 0.0 13.254248619 87.960014343
98 1 0.0 0.0 13.254248619 108.04221344
99 1 0.0 0.0 13.254248619 128.124404907
100 1 0.0 0.0 13.254248619 148.206604004
101 1 0.0 0.0 12.852604866 90.771522522
102 1 0.0 0.0 12.852604866 110.853721619
103 1 0.0 0.0 12.852604866 130.935913086
104 1 0.0 0.0 12.852604866 151.018096924
105 1 0.0 0.0 12.450961113 93.583023071
106 1 0.0 0.0 12.450961113 113.665222168
107 1 0.0 0.0 12.450961113 133.747436523
108 1 0.0 0.0 12.450961113 153.829620361
109 1 0.0 0.0 12.04931736 96.394538879
110 1 0.0 0.0 12.04931736 116.476737976
111 1 0.0 0.0 12.04931736 136.558929443
112 1 0.0 0.0 12.04931736 156.64112854
113 1 0.0 0.0 11.647673607 99.206047058
114 1 0.0 0.0 11.647673607 119.288246155
115 1 0.0 0.0 11.647673607 139.370437622
116 1 0.0 0.0 11.647673607 159.45262146
117 1 0.0 0.0 11.246030807 81.93535614
118 1 0.0 0.0 11.246030807 102.017547607
119 1 0.0 0.0 11.246030807 122.099746704
120 1 0.0 0.0 11.246030807 142.18196106
121 1 0.0 0.0 10.844384193 84.746856689
122 1 0.0 0.0 10.844384193 104.829063416
123 1 0.0 0.0 10.844384193 124.911262512
124 1 0.0 0.0 10.844384193 144.993438721
125 1 0.0 0.0 10.442741394 87.558372498
126 1 0.0 0.0 10.442741394 107.640571594
127 1 0.0 0.0 10.442741394 127.722770691
128 1 0.0 0.0 10.442741394 147.804962158
129 1 0.0 0.0 10.041097641 90.369880676
130 1 0.0 0.0 10.041097641 110.452072144
131 1 0.0 0.0 10.041097641 130.53427124
132 1 0.0 0.0 10.041097641 150.616485596
133 1 0.0 0.0 9.639454842 93.181381226
134 1 0.0 0.0 9.639454842 113.263580322
135 1 0.0 0.0 9.639454842 133.34576416
136 1 0.0 0.0 9.639454842 153.427963257
137 1 0.0 0.0 9.237810135 95.992889404
138 1 0.0 0.0 9.237810135 116.075088501
139 1 0.0 0.0 9.237810135 136.157287598
140 1 0.0 0.0 9.237810135 156.239486694
141 1 0.0 0.0 8.836165428 98.804405212
142 1 0.0 0.0 8.836165428 118.88659668
143 1 0.0 0.0 8.836165428 138.968811035
144 1 0.0 0.0 8.836165428 159.051010132
145 1 0.0 0.0 8.434523582 81.533706665
146 1 0.0 0.0 8.434523582 101.615905762
147 1 0.0 0.0 8.434523582 121.698104858
148 1 0.0 0.0 8.434523582 141.780288696
149 1 0.0 0.0 8.032876968 84.345214844
150 1 0.0 0.0 8.032876968 104.42741394
151 1 0.0 0.0 8.032876968 124.509605408
152 1 0.0 0.0 8.032876968 144.591812134
153 1 0.0 0.0 7.631234169 87.156730652
154 1 0.0 0.0 7.631234169 107.238929749
155 1 0.0 0.0 7.631234169 127.321121216
156 1 0.0 0.0 7.631234169 147.403335571
157 1 0.0 0.0 7.229590893 89.968231201
158 1 0.0 0.0 7.229590893 110.050430298
159 1 0.0 0.0 7.229590893 130.132644653
160 1 0.0 0.0 7.229590893 150.214813232
161 1 0.0 0.0 6.827945709 92.77973938
162 1 0.0 0.0 6.827945709 112.861938477
163 1 0.0 0.0 6.827945709 132.944122314
164 1 0.0 0.0 6.827945709 153.02633667
165 1 0.0 0.0 6.426302433 95.591255188
166 1 0.0 0.0 6.426302433 115.673439026
167 1 0.0 0.0 6.426302433 135.755645752
168 1 0.0 0.0 6.426302433 155.837860107
169 1 0.0 0.0 6.02465868 98.402755737
170 1 0.0 0.0 6.02465868 118.484954834
171 1 0.0 0.0 6.02465868 138.567169189
172 1 0.0 0.0 6.02465868 158.649337769
173 1 0.0 0.0 5.623013973 81.132064819
174 1 0.0 0.0 5.623013973 101.214263916
175 1 0.0 0.0 5.623013973 121.296463013
176 1 0.0 0.0 5.623013973 141.378646851
177 1 0.0 0.0 5.221370697 83.943572998
178 1 0.0 0.0 5.221370697 104.025779724
179 1 0.0 0.0 5.221370697 124.107978821
180 1 0.0 0.0 5.221370697 144.190170288
181 1 0.0 0.0 4.819727421 86.755088806
182 1 0.0 0.0 4.819727421 106.837272644
183 1 0.0 0.0 4.819727421 126.919471741
184 1 0.0 0.0 4.819727421 147.001663208
185 1 0.0 0.0 4.418084145 89.566589355
186 1 0.0 0.0 4.418084145 109.648788452
187 1 0.0 0.0 4.418084145 129.73097229
188 1 0.0 0.0 4.418084145 149.813171387
189 1 0.0 0.0 4.016438484 92.378097534
190 1 0.0 0.0 4.016438484 112.460289001
191 1 0.0 0.0 4.016438484 132.542495728
192 1 0.0 0.0 4.016438484 152.624679565
193 1 0.0 0.0 3.614795446 95.189598083
194 1 0.0 0.0 3.614795446 115.27179718
195 1 0.0 0.0 3.614795446 135.353988647
196 1 0.0 0.0 3.614795446 155.436187744
197 1 0.0 0.0 3.213151693 98.001113892
198 1 0.0 0.0 3.213151693 118.083312988
199 1 0.0 0.0 3.213151693 138.165496826
200 1 0.0 0.0 3.213151693 158.247695923
201 1 0.0 1.420025706 18.47562027 81.533706665
202 1 0.0 1.420025706 18.47562027 101.615905762
203 1 0.0 1.420025706 18.47562027 121.698104858
204 1 0.0 1.420025706 18.47562027 141.780288696
205 1 0.0 1.420025706 1.204930663 81.93535614
206 1 0.0 1.420025706 1.204930663 102.017547607
207 1 0.0 1.420025706 1.204930663 122.099746704
208 1 0.0 1.420025706 1.204930663 142.18196106
209 1 0.0 1.420025706 0.803287029 84.746856689
210 1 0.0 1.420025706 0.803287029 104.829063416
211 1 0.0 1.420025706 0.803287029 124.911262512
212 1 0.0 1.420025706 0.803287029 144.993438721
213 1 0.0 1.420025706 0.401645929 87.558372498
214 1 0.0 1.420025706 0.401645929 107.640571594
215 1 0.0 1.420025706 0.401645929 127.722770691
216 1 0.0 1.420025706 0.401645929 147.804962158
217 1 0.0 1.420025706 0.0 90.369880676
218 1 0.0 1.420025706 0.0 110.452072144
219 1 0.0 1.420025706 0.0 130.53427124
220 1 0.0 1.420025706 0.0 150.616485596
221 1 0.0 1.420025706 19.680551529 93.181381226
222 1 0.0 1.420025706 19.680551529 113.263580322
223 1 0.0 1.420025706 19.680551529 133.34576416
224 1 0.0 1.420025706 19.680551529 153.427963257
225 1 0.0 1.420025706 19.278909683 95.992897034
226 1 0.0 1.420025706 19.278909683 116.075088501
227 1 0.0 1.420025706 19.278909683 136.157287598
228 1 0.0 1.420025706 19.278909683 156.239486694
229 1 0.0 1.420025706 18.877262115 98.804405212
230 1 0.0 1.420025706 18.877262115 118.88659668
231 1 0.0 1.420025706 18.877262115 138.968811035
232 1 0.0 1.420025706 18.877262115 159.051010132
233 1 0.0 1.420025706 18.073976517 84.345214844
234 1 0.0 1.420025706 18.073976517 104.42741394
235 1 0.0 1.420025706 18.073976517 124.509605408
236 1 0.0 1.420025706 18.073976517 144.591812134
237 1 0.0 1.420025706 17.672330856 87.156730652
238 1 0.0 1.420025706 17.672330856 107.238929749
239 1 0.0 1.420025706 17.672330856 127.321121216
240 1 0.0 1.420025706 17.672330856 147.403335571
241 1 0.0 1.420025706 17.270687103 89.968231201
242 1 0.0 1.420025706 17.270687103 110.050430298
243 1 0.0 1.420025706 17.270687103 130.132644653
244 1 0.0 1.420025706 17.270687103 150.214813232
245 1 0.0 1.420025706 16.869047165 92.77973938
246 1 0.0 1.420025706 16.869047165 112.861938477
247 1 0.0 1.420025706 16.869047165 132.944122314
248 1 0.0 1.420025706 16.869047165 153.02633667
249 1 0.0 1.420025706 16.467399597 95.591255188
250 1 0.0 1.420025706 16.467399597 115.673439026
251 1 0.0 1.420025706 16.467399597 135.755645752
252 1 0.0 1.420025706 16.467399597 155.837860107
253 1 0.0 1.420025706 16.065755844 98.402755737
254 1 0.0 1.420025706 16.065755844 118.484954834
255 1 0.0 1.420025706 16.065755844 138.567169189
256 1 0.0 1.420025706 16.065755844 158.649337769
257 1 0.0 1.420025706 15.664113045 81.132064819
258 1 0.0 1.420025706 15.664113045 101.214263916
259 1 0.0 1.420025706 15.664113045 121.296463013
260 1 0.0 1.420025706 15.664113045 141.378646851
261 1 0.0 1.420025706 15.262468338 83.943572998
262 1 0.0 1.420025706 15.262468338 104.025772095
263 1 0.0 1.420025706 15.262468338 124.107978821
264 1 0.0 1.420025706 15.262468338 144.190170288
265 1 0.0 1.420025706 14.860824585 86.755088806
266 1 0.0 1.420025706 14.860824585 106.837272644
267 1 0.0 1.420025706 14.860824585 126.919471741
268 1 0.0 1.420025706 14.860824585 147.001663208
269 1 0.0 1.420025706 14.459181786 89.566589355
270 1 0.0 1.420025706 14.459181786 109.648788452
271 1 0.0 1.420025706 14.459181786 129.73097229
272 1 0.0 1.420025706 14.459181786 149.813171387
273 1 0.0 1.420025706 14.057536125 92.378097534
274 1 0.0 1.420025706 14.057536125 112.460289001
275 1 0.0 1.420025706 14.057536125 132.542495728
276 1 0.0 1.420025706 14.057536125 152.624679565
277 1 0.0 1.420025706 13.655893326 95.189598083
278 1 0.0 1.420025706 13.655893326 115.27179718
279 1 0.0 1.420025706 13.655893326 135.353988647
280 1 0.0 1.420025706 13.655893326 155.436187744
281 1 0.0 1.420025706 13.254249573 98.001113892
282 1 0.0 1.420025706 13.254249573 118.083312988
283 1 0.0 1.420025706 13.254249573 138.165496826
284 1 0.0 1.420025706 13.254249573 158.247695923
285 1 0.0 1.420025706 12.852604866 80.730422974
286 1 0.0 1.420025706 12.852604866 100.81262207
287 1 0.0 1.420025706 12.852604866 120.894813538
288 1 0.0 1.420025706 12.852604866 140.977020264
289 1 0.0 1.420025706 12.450961113 83.541931152
290 1 0.0 1.420025706 12.450961113 103.62412262
291 1 0.0 1.420025706 12.450961113 123.706321716
292 1 0.0 1.420025706 12.450961113 143.788513184
293 1 0.0 1.420025706 12.04931736 86.353439331
294 1 0.0 1.420025706 12.04931736 106.435638428
295 1 0.0 1.420025706 12.04931736 126.517837524
296 1 0.0 1.420025706 12.04931736 146.600021362
297 1 0.0 1.420025706 11.6476717 89.16494751
298 1 0.0 1.420025706 11.6476717 109.247146606
299 1 0.0 1.420025706 11.6476717 129.329330444
300 1 0.0 1.420025706 11.6476717 149.4115448
301 1 0.0 1.420025706 11.246030807 91.976455688
302 1 0.0 1.420025706 11.246030807 112.058647156
303 1 0.0 1.420025706 11.246030807 132.140853882
304 1 0.0 1.420025706 11.246030807 152.22303772
305 1 0.0 1.420025706 10.844386101 94.787963867
306 1 0.0 1.420025706 10.844386101 114.870155334
307 1 0.0 1.420025706 10.844386101 134.952377319
308 1 0.0 1.420025706 10.844386101 155.034545898
309 1 0.0 1.420025706 10.442741394 97.599472046
310 1 0.0 1.420025706 10.442741394 117.681671143
311 1 0.0 1.420025706 10.442741394 137.76385498
312 1 0.0 1.420025706 10.442741394 157.846069336
313 1 0.0 1.420025706 10.041097641 80.328781128
314 1 0.0 1.420025706 10.041097641 100.410972595
315 1 0.0 1.420025706 10.041097641 120.493171692
316 1 0.0 1.420025706 10.041097641 140.575363159
317 1 0.0 1.420025706 9.639454842 83.140281677
318 1 0.0 1.420025706 9.639454842 103.222480774
319 1 0.0 1.420025706 9.639454842 123.3046875
320 1 0.0 1.420025706 9.639454842 143.386901855
321 1 0.0 1.420025706 9.237810135 85.951797485
322 1 0.0 1.420025706 9.237810135 106.033988953
323 1 0.0 1.420025706 9.237810135 126.11618042
324 1 0.0 1.420025706 9.237810135 146.198379517
325 1 0.0 1.420025706 8.836165428 88.763305664
326 1 0.0 1.420025706 8.836165428 108.845497131
327 1 0.0 1.420025706 8.836165428 128.927703857
328 1 0.0 1.420025706 8.836165428 149.009887695
329 1 0.0 1.420025706 8.434523582 91.574806213
330 1 0.0 1.420025706 8.434523582 111.65700531
331 1 0.0 1.420025706 8.434523582 131.739196777
332 1 0.0 1.420025706 8.434523582 151.821395874
333 1 0.0 1.420025706 8.032878876 94.386314392
334 1 0.0 1.420025706 8.032878876 114.468513489
335 1 0.0 1.420025706 8.032878876 134.550704956
336 1 0.0 1.420025706 8.032878876 154.632904053
337 1 0.0 1.420025706 7.631234169 97.1978302
338 1 0.0 1.420025706 7.631234169 117.280021667
339 1 0.0 1.420025706 7.631234169 137.362228394
340 1 0.0 1.420025706 7.631234169 157.444412231
341 1 0.0 1.420025706 7.229590893 100.00933075
342 1 0.0 1.420025706 7.229590893 120.091529846
343 1 0.0 1.420025706 7.229590893 140.173721313
344 1 0.0 1.420025706 7.229590893 160.25592041
345 1 0.0 1.420025706 6.82794714 82.738639832
346 1 0.0 1.420025706 6.82794714 102.820838928
347 1 0.0 1.420025706 6.82794714 122.903038025
348 1 0.0 1.420025706 6.82794714 142.985229492
349 1 0.0 1.420025706 6.426302433 85.55015564
350 1 0.0 1.420025706 6.426302433 105.632354736
351 1 0.0 1.420025706 6.426302433 125.714546204
352 1 0.0 1.420025706 6.426302433 145.79675293
353 1 0.0 1.420025706 6.02465868 88.361656189
354 1 0.0 1.420025706 6.02465868 108.443855286
355 1 0.0 1.420025706 6.02465868 128.526046753
356 1 0.0 1.420025706 6.02465868 148.60824585
357 1 0.0 1.420025706 5.623015404 91.173164368
358 1 0.0 1.420025706 5.623015404 111.255363464
359 1 0.0 1.420025706 5.623015404 131.337554932
360 1 0.0 1.420025706 5.623015404 151.419754028
361 1 0.0 1.420025706 5.221370697 93.984672546
362 1 0.0 1.420025706 5.221370697 114.066879272
363 1 0.0 1.420025706 5.221370697 134.14906311
364 1 0.0 1.420025706 5.221370697 154.231277466
365 1 0.0 1.420025706 4.819727421 96.796180725
366 1 0.0 1.420025706 4.819727421 116.878372192
367 1 0.0 1.420025706 4.819727421 136.96055603
368 1 0.0 1.420025706 4.819727421 157.042755127
369 1 0.0 1.420025706 4.418084145 99.607688904
370 1 0.0 1.420025706 4.418084145 119.689888
371 1 0.0 1.420025706 4.418084145 139.772079468
372 1 0.0 1.420025706 4.418084145 159.854278564
373 1 0.0 1.420025706 4.016438484 82.336997986
374 1 0.0 1.420025706 4.016438484 102.419197083
375 1 0.0 1.420025706 4.016438484 122.50138855
376 1 0.0 1.420025706 4.016438484 142.583587646
377 1 0.0 1.420025706 3.614795446 85.148498535
378 1 0.0 1.420025706 3.614795446 105.230697632
379 1 0.0 1.420025706 3.614795446 125.312896729
380 1 0.0 1.420025706 3.614795446 145.395095825
381 1 0.0 1.420025706 3.213151693 87.960014343
382 1 0.0 1.420025706 3.213151693 108.04221344
383 1 0.0 1.420025706 3.213151693 128.124404907
384 1 0.0 1.420025706 3.213151693 148.206604004
385 1 0.0 1.420025706 2.811508179 90.771522522
386 1 0.0 1.420025706 2.811508179 110.853721619
387 1 0.0 1.420025706 2.811508179 130.935913086
388 1 0.0 1.420025706 2.811508179 151.018096924
389 1 0.0 1.420025706 2.409864902 93.583023071
390 1 0.0 1.420025706 2.409864902 113.665222168
391 1 0.0 1.420025706 2.409864902 133.747436523
392 1 0.0 1.420025706 2.409864902 153.829620361
393 1 0.0 1.420025706 2.008219957 96.394538879
394 1 0.0 1.420025706 2.008219957 116.476737976
395 1 0.0 1.420025706 2.008219957 136.558929443
396 1 0.0 1.420025706 2.008219957 156.64112854
397 1 0.0 1.420025706 1.606576443 99.206047058
398 1 0.0 1.420025706 1.606576443 119.288246155
399 1 0.0 1.420025706 1.606576443 139.370437622
400 1 0.0 1.420025706 1.606576443 159.45262146
401 2 0.0 0.0 0.0 0.0
402 2 0.0 0.0 0.0 20.082195282
403 2 0.0 0.0 0.0 40.164390564
404 2 0.0 0.0 0.0 60.246585846
405 2 0.0 0.0 17.270687103 0.401643902
406 2 0.0 0.0 17.270687103 20.483839035
407 2 0.0 0.0 17.270687103 40.56603241
408 2 0.0 0.0 17.270687103 60.648231506
409 2 0.0 0.0 17.672330856 3.213151217
410 2 0.0 0.0 17.672330856 23.295345306
411 2 0.0 0.0 17.672330856 43.377544403
412 2 0.0 0.0 17.672330856 63.459739685
413 2 0.0 0.0 18.073976517 6.02465868
414 2 0.0 0.0 18.073976517 26.106853485
415 2 0.0 0.0 18.073976517 46.189048767
416 2 0.0 0.0 18.073976517 66.271247864
417 2 0.0 0.0 18.47562027 8.836165428
418 2 0.0 0.0 18.47562027 28.918359756
419 2 0.0 0.0 18.47562027 49.000556946
420 2 0.0 0.0 18.47562027 69.082748413
421 2 0.0 0.0 18.87726593 11.647672653
422 2 0.0 0.0 18.87726593 31.729867935
423 2 0.0 0.0 18.87726593 51.81206131
424 2 0.0 0.0 18.87726593 71.894256592
425 2 0.0 0.0 19.278909683 14.459181786
426 2 0.0 0.0 19.278909683 34.541374207
427 2 0.0 0.0 19.278909683 54.623573303
428 2 0.0 0.0 19.278909683 74.7057724
429 2 0.0 0.0 19.680551529 17.270687103
430 2 0.0 0.0 19.680551529 37.3528862
431 2 0.0 0.0 19.680551529 57.435077667
432 2 0.0 0.0 19.680551529 77.517272949
433 2 0.0 0.0 0.401643902 2.811507225
434 2 0.0 0.0 0.401643902 22.893701553
435 2 0.0 0.0 0.401643902 42.975898743
436 2 0.0 0.0 0.401643902 63.058097839
437 2 0.0 0.0 0.803287804 5.62301445
438 2 0.0 0.0 0.803287804 25.705209732
439 2 0.0 0.0 0.803287804 45.787403107
440 2 0.0 0.0 0.803287804 65.869598389
441 2 0.0 0.0 1.204931855 8.434521675
442 2 0.0 0.0 1.204931855 28.516716003
443 2 0.0 0.0 1.204931855 48.5989151
444 2 0.0 0.0 1.204931855 68.681114197
445 2 0.0 0.0 1.606575608 11.2460289
446 2 0.0 0.0 1.606575608 31.328224182
447 2 0.0 0.0 1.606575608 51.410419464
448 2 0.0 0.0 1.606575608 71.492614746
449 2 0.0 0.0 2.008219481 14.057536125
450 2 0.0 0.0 2.008219481 34.139732361
451 2 0.0 0.0 2.008219481 54.221927643
452 2 0.0 0.0 2.008219481 74.304122925
453 2 0.0 0.0 2.40986371 16.86904335
454 2 0.0 0.0 2.40986371 36.95124054
455 2 0.0 0.0 2.40986371 57.033432007
456 2 0.0 0.0 2.40986371 77.115638733
457 2 0.0 0.0 2.811507225 19.680551529
458 2 0.0 0.0 2.811507225 39.762752533
459 2 0.0 0.0 2.811507225 59.844944
460 2 0.0 0.0 2.811507225 79.927139282
461 2 0.0 0.0 3.213151217 2.40986371
462 2 0.0 0.0 3.213151217 22.4920578
463 2 0.0 0.0 3.213151217 42.574249268
464 2 0.0 0.0 3.213151217 62.656448364
465 2 0.0 0.0 3.614795446 5.221370697
466 2 0.0 0.0 3.614795446 25.303565979
467 2 0.0 0.0 3.614795446 45.385761261
468 2 0.0 0.0 3.614795446 65.467956543
469 2 0.0 0.0 4.016438961 8.032877922
470 2 0.0 0.0 4.016438961 28.11507225
471 2 0.0 0.0 4.016438961 48.19726944
472 2 0.0 0.0 4.016438961 68.279464722
473 2 0.0 0.0 4.418082714 10.844386101
474 2 0.0 0.0 4.418082714 30.926580429
475 2 0.0 0.0 4.418082714 51.008773804
476 2 0.0 0.0 4.418082714 71.09098053
477 2 0.0 0.0 4.819727421 13.655893326
478 2 0.0 0.0 4.819727421 33.73809433
479 2 0.0 0.0 4.819727421 53.820285797
480 2 0.0 0.0 4.819727421 73.902481079
481 2 0.0 0.0 5.221370697 16.467399597
482 2 0.0 0.0 5.221370697 36.549594879
483 2 0.0 0.0 5.221370697 56.631790161
484 2 0.0 0.0 5.221370697 76.713981628
485 2 0.0 0.0 5.62301445 19.278909683
486 2 0.0 0.0 5.62301445 39.361103058
487 2 0.0 0.0 5.62301445 59.44329834
488 2 0.0 0.0 5.62301445 79.525505066
489 2 0.0 0.0 6.02465868 2.008219481
490 2 0.0 0.0 6.02465868 22.090414047
491 2 0.0 0.0 6.02465868 42.172607422
492 2 0.0 0.0 6.02465868 62.254802704
493 2 0.0 0.0 6.426302433 4.819727421
494 2 0.0 0.0 6.426302433 24.901922226
495 2 0.0 0.0 6.426302433 44.984115601
496 2 0.0 0.0 6.426302433 65.066322327
497 2 0.0 0.0 6.827946663 7.631234169
498 2 0.0 0.0 6.827946663 27.713430405
499 2 0.0 0.0 6.827946663 47.795627594
500 2 0.0 0.0 6.827946663 67.877822876
501 2 0.0 0.0 7.229590893 10.442741394
502 2 0.0 0.0 7.229590893 30.524936676
503 2 0.0 0.0 7.229590893 50.607131958
504 2 0.0 0.0 7.229590893 70.689323425
505 2 0.0 0.0 7.631234169 13.254249573
506 2 0.0 0.0 7.631234169 33.336444855
507 2 0.0 0.0 7.631234169 53.418640137
508 2 0.0 0.0 7.631234169 73.500846863
509 2 0.0 0.0 8.032877922 16.065755844
510 2 0.0 0.0 8.032877922 36.147953033
511 2 0.0 0.0 8.032877922 56.230144501
512 2 0.0 0.0 8.032877922 76.312339783
513 2 0.0 0.0 8.434521675 18.87726593
514 2 0.0 0.0 8.434521675 38.959465027
515 2 0.0 0.0 8.434521675 59.041656494
516 2 0.0 0.0 8.434521675 79.123847961
517 2 0.0 0.0 8.836165428 1.606575608
518 2 0.0 0.0 8.836165428 21.688772202
519 2 0.0 0.0 8.836165428 41.770965576
520 2 0.0 0.0 8.836165428 61.853160858
521 2 0.0 0.0 9.237810135 4.418082714
522 2 0.0 0.0 9.237810135 24.500278473
523 2 0.0 0.0 9.237810135 44.582473755
524 2 0.0 0.0 9.237810135 64.664665222
525 2 0.0 0.0 9.639454842 7.229590893
526 2 0.0 0.0 9.639454842 27.311786652
527 2 0.0 0.0 9.639454842 47.393981934
528 2 0.0 0.0 9.639454842 67.47618866
529 2 0.0 0.0 10.041097641 10.041097641
530 2 0.0 0.0 10.041097641 30.123292923
531 2 0.0 0.0 10.041097641 50.205486298
532 2 0.0 0.0 10.041097641 70.28768158
533 2 0.0 0.0 10.442741394 12.852604866
534 2 0.0 0.0 10.442741394 32.934799194
535 2 0.0 0.0 10.442741394 53.016994476
536 2 0.0 0.0 10.442741394 73.099189758
537 2 0.0 0.0 10.844386101 15.664112091
538 2 0.0 0.0 10.844386101 35.746307373
539 2 0.0 0.0 10.844386101 55.828502655
540 2 0.0 0.0 10.844386101 75.910697937
541 2 0.0 0.0 11.2460289 18.47562027
542 2 0.0 0.0 11.2460289 38.557819366
543 2 0.0 0.0 11.2460289 58.640010834
544 2 0.0 0.0 11.2460289 78.722206116
545 2 0.0 0.0 11.647672653 1.204931855
546 2 0.0 0.0 11.647672653 21.287124634
547 2 0.0 0.0 11.647672653 41.369319916
548 2 0.0 0.0 11.647672653 61.451519012
549 2 0.0 0.0 12.04931736 4.016438961
550 2 0.0 0.0 12.04931736 24.09863472
551 2 0.0 0.0 12.04931736 44.180828094
552 2 0.0 0.0 12.04931736 64.263023376
553 2 0.0 0.0 12.450961113 6.827946663
554 2 0.0 0.0 12.450961113 26.910142899
555 2 0.0 0.0 12.450961113 46.992336273
556 2 0.0 0.0 12.450961113 67.074531555
557 2 0.0 0.0 12.852604866 9.639454842
558 2 0.0 0.0 12.852604866 29.72164917
559 2 0.0 0.0 12.852604866 49.803844452
560 2 0.0 0.0 12.852604866 69.886039734
561 2 0.0 0.0 13.254249573 12.450961113
562 2 0.0 0.0 13.254249573 32.533161163
563 2 0.0 0.0 13.254249573 52.615348816
564 2 0.0 0.0 13.254249573 72.697540283
565 2 0.0 0.0 13.655893326 15.262468338
566 2 0.0 0.0 13.655893326 35.344661713
567 2 0.0 0.0 13.655893326 55.426860809
568 2 0.0 0.0 13.655893326 75.509063721
569 2 0.0 0.0 14.057536125 18.073976517
570 2 0.0 0.0 14.057536125 38.156169891
571 2 0.0 0.0 14.057536125 58.238368988
572 2 0.0 0.0 14.057536125 78.32056427
573 2 0.0 0.0 14.459181786 0.803287804
574 2 0.0 0.0 14.459181786 20.885482788
575 2 0.0 0.0 14.459181786 40.96767807
576 2 0.0 0.0 14.459181786 61.049873352
577 2 0.0 0.0 14.860824585 3.614795446
578 2 0.0 0.0 14.860824585 23.696990967
579 2 0.0 0.0 14.860824585 43.779186249
580 2 0.0 0.0 14.860824585 63.861385345
581 2 0.0 0.0 15.262468338 6.426302433
582 2 0.0 0.0 15.262468338 26.508497238
583 2 0.0 0.0 15.262468338 46.590690613
584 2 0.0 0.0 15.262468338 66.67288208
585 2 0.0 0.0 15.664112091 9.237810135
586 2 0.0 0.0 15.664112091 29.320005417
587 2 0.0 0.0 15.664112091 49.402202606
588 2 0.0 0.0 15.664112091 69.484405518
589 2 0.0 0.0 16.065755844 12.04931736
590 2 0.0 0.0 16.065755844 32.131511688
591 2 0.0 0.0 16.065755844 52.21370697
592 2 0.0 0.0 16.065755844 72.295906067
593 2 0.0 0.0 16.467399597 14.860824585
594 2 0.0 0.0 16.467399597 34.943019867
595 2 0.0 0.0 16.467399597 55.025215149
596 2 0.0 0.0 16.467399597 75.107406616
597 2 0.0 0.0 16.86904335 17.672330856
598 2 0.0 0.0 16.86904335 37.754524231
599 2 0.0 0.0 16.86904335 57.836719513
600 2 0.0 0.0 16.86904335 77.918914795
601 2 0.0 1.420025706 1.606575608 1.204931855
602 2 0.0 1.420025706 1.606575608 21.287124634
603 2 0.0 1.420025706 1.606575608 41.369319916
604 2 0.0 1.420025706 1.606575608 61.451519012
605 2 0.0 1.420025706 18.87726593 1.606575608
606 2 0.0 1.420025706 18.87726593 21.688772202
607 2 0.0 1.420025706 18.87726593 41.770965576
608 2 0.0 1.420025706 18.87726593 61.853160858
609 2 0.0 1.420025706 19.278909683 4.418082714
610 2 0.0 1.420025706 19.278909683 24.500278473
611 2 0.0 1.420025706 19.278909683 44.582473755
612 2 0.0 1.420025706 19.278909683 64.664665222
613 2 0.0 1.420025706 19.680549622 7.229590893
614 2 0.0 1.420025706 19.680549622 27.311786652
615 2 0.0 1.420025706 19.680549622 47.393981934
616 2 0.0 1.420025706 19.680549622 67.47618866
617 2 0.0 1.420025706 0.0 10.041097641
618 2 0.0 1.420025706 0.0 30.123292923
619 2 0.0 1.420025706 0.0 50.205486298
620 2 0.0 1.420025706 0.0 70.28768158
621 2 0.0 1.420025706 0.401643515 12.852604866
622 2 0.0 1.420025706 0.401643515 32.934799194
623 2 0.0 1.420025706 0.401643515 53.016994476
624 2 0.0 1.420025706 0.401643515 73.099189758
625 2 0.0 1.420025706 0.803287029 15.664113045
626 2 0.0 1.420025706 0.803287029 35.746307373
627 2 0.0 1.420025706 0.803287029 55.828502655
628 2 0.0 1.420025706 0.803287029 75.910697937
629 2 0.0 1.420025706 1.204933047 18.47562027
630 2 0.0 1.420025706 1.204933047 38.557819366
631 2 0.0 1.420025706 1.204933047 58.640010834
632 2 0.0 1.420025706 1.204933047 78.722206116
633 2 0.0 1.420025706 2.008219242 4.016438961
634 2 0.0 1.420025706 2.008219242 24.09863472
635 2 0.0 1.420025706 2.008219242 44.180828094
636 2 0.0 1.420025706 2.008219242 64.263023376
637 2 0.0 1.420025706 2.40986371 6.827946663
638 2 0.0 1.420025706 2.40986371 26.910142899
639 2 0.0 1.420025706 2.40986371 46.992336273
640 2 0.0 1.420025706 2.40986371 67.074531555
641 2 0.0 1.420025706 2.811507225 9.639454842
642 2 0.0 1.420025706 2.811507225 29.72164917
643 2 0.0 1.420025706 2.811507225 49.803844452
644 2 0.0 1.420025706 2.811507225 69.886039734
645 2 0.0 1.420025706 3.213151217 12.450961113
646 2 0.0 1.420025706 3.213151217 32.533161163
647 2 0.0 1.420025706 3.213151217 52.615348816
648 2 0.0 1.420025706 3.213151217 72.697540283
649 2 0.0 1.420025706 3.614795446 15.262468338
650 2 0.0 1.420025706 3.614795446 35.344661713
651 2 0.0 1.420025706 3.614795446 55.426860809
652 2 0.0 1.420025706 3.614795446 75.509063721
653 2 0.0 1.420025706 4.016438484 18.073976517
654 2 0.0 1.420025706 4.016438484 38.156169891
655 2 0.0 1.420025706 4.016438484 58.238368988
656 2 0.0 1.420025706 4.016438484 78.32056427
657 2 0.0 1.420025706 4.418082714 0.803287029
658 2 0.0 1.420025706 4.418082714 20.885482788
659 2 0.0 1.420025706 4.418082714 40.96767807
660 2 0.0 1.420025706 4.418082714 61.049873352
661 2 0.0 1.420025706 4.819727421 3.61479497
662 2 0.0 1.420025706 4.819727421 23.696989059
663 2 0.0 1.420025706 4.819727421 43.779186249
664 2 0.0 1.420025706 4.819727421 63.861385345
665 2 0.0 1.420025706 5.221370697 6.426302433
666 2 0.0 1.420025706 5.221370697 26.508497238
667 2 0.0 1.420025706 5.221370697 46.590690613
668 2 0.0 1.420025706 5.221370697 66.67288208
669 2 0.0 1.420025706 5.62301445 9.237810135
670 2 0.0 1.420025706 5.62301445 29.320005417
671 2 0.0 1.420025706 5.62301445 49.402202606
672 2 0.0 1.420025706 5.62301445 69.484405518
673 2 0.0 1.420025706 6.02465868 12.04931736
674 2 0.0 1.420025706 6.02465868 32.131511688
675 2 0.0 1.420025706 6.02465868 52.21370697
676 2 0.0 1.420025706 6.02465868 72.295906067
677 2 0.0 1.420025706 6.426302433 14.860824585
678 2 0.0 1.420025706 6.426302433 34.943019867
679 2 0.0 1.420025706 6.426302433 55.025215149
680 2 0.0 1.420025706 6.426302433 75.107406616
681 2 0.0 1.420025706 6.827945709 17.672330856
682 2 0.0 1.420025706 6.827945709 37.754524231
683 2 0.0 1.420025706 6.827945709 57.836719513
684 2 0.0 1.420025706 6.827945709 77.918914795
685 2 0.0 1.420025706 7.229590893 0.401643515