# LAMMPS data file written by Ovito Basic 3.0.0-dev791
160 atoms
2 atom types
0.0 2.840051651 xlo xhi
0.0 8.9810314178 ylo yhi
0.0 71.8482513428 zlo zhi

Atoms  # charge

1 1 0.0 0.0 0.0 35.924121857
2 1 0.0 0.0 0.0 44.905151367
3 1 0.0 0.0 0.0 53.886184692
4 1 0.0 0.0 0.0 62.867214203
5 1 0.0 0.0 2.694309235 36.822223663
6 1 0.0 0.0 2.694309235 45.803256989
7 1 0.0 0.0 2.694309235 54.784286499
8 1 0.0 0.0 2.694309235 63.765319824
9 1 0.0 0.0 1.796205997 39.516536713
10 1 0.0 0.0 1.796205997 48.497566223
11 1 0.0 0.0 1.796205997 57.478599548
12 1 0.0 0.0 1.796205997 66.459632874
13 1 0.0 0.0 0.898103833 42.210842133
14 1 0.0 0.0 0.898103833 51.191871643
15 1 0.0 0.0 0.898103833 60.172904968
16 1 0.0 0.0 0.898103833 69.153938293
17 1 0.0 0.0 8.08292675 38.618431091
18 1 0.0 0.0 8.08292675 47.599464417
19 1 0.0 0.0 8.08292675 56.580493927
20 1 0.0 0.0 8.08292675 65.561523438
21 1 0.0 0.0 7.184824944 41.312740326
22 1 0.0 0.0 7.184824944 50.293769836
23 1 0.0 0.0 7.184824944 59.274803162
24 1 0.0 0.0 7.184824944 68.255836487
25 1 0.0 0.0 6.28672123 44.007049561
26 1 0.0 0.0 6.28672123 52.988082886
27 1 0.0 0.0 6.28672123 61.969108582
28 1 0.0 0.0 6.28672123 70.950134277
29 1 0.0 0.0 5.388618469 37.72032547
30 1 0.0 0.0 5.388618469 46.701358795
31 1 0.0 0.0 5.388618469 55.682388306
32 1 0.0 0.0 5.388618469 64.663414001
33 1 0.0 0.0 4.490515232 40.414638519
34 1 0.0 0.0 4.490515232 49.39566803
35 1 0.0 0.0 4.490515232 58.376701355
36 1 0.0 0.0 4.490515232 67.35773468
37 1 0.0 0.0 3.592411995 43.108947754
38 1 0.0 0.0 3.592411995 52.089977264
39 1 0.0 0.0 3.592411995 61.07101059
40 1 0.0 0.0 3.592411995 70.0520401
41 1 0.0 1.420025706 7.184824944 36.822223663
42 1 0.0 1.420025706 7.184824944 45.803256989
43 1 0.0 1.420025706 7.184824944 54.784286499
44 1 0.0 1.420025706 7.184824944 63.765319824
45 1 0.0 1.420025706 0.898103833 37.72032547
46 1 0.0 1.420025706 0.898103833 46.701358795
47 1 0.0 1.420025706 0.898103833 55.682388306
48 1 0.0 1.420025706 0.898103833 64.663414001
49 1 0.0 1.420025706 0.0 40.414638519
50 1 0.0 1.420025706 0.0 49.39566803
51 1 0.0 1.420025706 0.0 58.376701355
52 1 0.0 1.420025706 0.0 67.35773468
53 1 0.0 1.420025706 8.08292675 43.108947754
54 1 0.0 1.420025706 8.08292675 52.089977264
55 1 0.0 1.420025706 8.08292675 61.07101059
56 1 0.0 1.420025706 8.08292675 70.0520401
57 1 0.0 1.420025706 6.28672123 39.516536713
58 1 0.0 1.420025706 6.28672123 48.497566223
59 1 0.0 1.420025706 6.28672123 57.478599548
60 1 0.0 1.420025706 6.28672123 66.459632874
61 1 0.0 1.420025706 5.388618469 42.210842133
62 1 0.0 1.420025706 5.388618469 51.191871643
63 1 0.0 1.420025706 5.388618469 60.172904968
64 1 0.0 1.420025706 5.388618469 69.153938293
65 1 0.0 1.420025706 4.490515232 35.924121857
66 1 0.0 1.420025706 4.490515232 44.905151367
67 1 0.0 1.420025706 4.490515232 53.886184692
68 1 0.0 1.420025706 4.490515232 62.867214203
69 1 0.0 1.420025706 3.592411995 38.618431091
70 1 0.0 1.420025706 3.592411995 47.599464417
71 1 0.0 1.420025706 3.592411995 56.580493927
72 1 0.0 1.420025706 3.592411995 65.561523438
73 1 0.0 1.420025706 2.694309235 41.312740326
74 1 0.0 1.420025706 2.694309235 50.293769836
75 1 0.0 1.420025706 2.694309235 59.274803162
76 1 0.0 1.420025706 2.694309235 68.255836487
77 1 0.0 1.420025706 1.796205997 44.007049561
78 1 0.0 1.420025706 1.796205997 52.988082886
79 1 0.0 1.420025706 1.796205997 61.969112396
80 1 0.0 1.420025706 1.796205997 70.950141907
81 2 0.0 0.0 0.0 0.0
82 2 0.0 0.0 0.0 8.981030464
83 2 0.0 0.0 0.0 17.962060928
84 2 0.0 0.0 0.0 26.943092346
85 2 0.0 0.0 6.28672123 0.898103118
86 2 0.0 0.0 6.28672123 9.879134178
87 2 0.0 0.0 6.28672123 18.860162735
88 2 0.0 0.0 6.28672123 27.841194153
89 2 0.0 0.0 7.184824944 3.592412472
90 2 0.0 0.0 7.184824944 12.573442459
91 2 0.0 0.0 7.184824944 21.554473877
92 2 0.0 0.0 7.184824944 30.535505295
93 2 0.0 0.0 8.08292675 6.28672123
94 2 0.0 0.0 8.08292675 15.267752647
95 2 0.0 0.0 8.08292675 24.248783112
96 2 0.0 0.0 8.08292675 33.229816437
97 2 0.0 0.0 0.898103118 2.694309235
98 2 0.0 0.0 0.898103118 11.675339699
99 2 0.0 0.0 0.898103118 20.656370163
100 2 0.0 0.0 0.898103118 29.637401581
101 2 0.0 0.0 1.796206236 5.388618469
102 2 0.0 0.0 1.796206236 14.369649887
103 2 0.0 0.0 1.796206236 23.350679398
104 2 0.0 0.0 1.796206236 32.331707001
105 2 0.0 0.0 2.694309235 8.08292675
106 2 0.0 0.0 2.694309235 17.063959122
107 2 0.0 0.0 2.694309235 26.044988632
108 2 0.0 0.0 2.694309235 35.026016235
109 2 0.0 0.0 3.592412472 1.796206236
110 2 0.0 0.0 3.592412472 10.777236938
111 2 0.0 0.0 3.592412472 19.758268356
112 2 0.0 0.0 3.592412472 28.739299774
113 2 0.0 0.0 4.490515232 4.490515232
114 2 0.0 0.0 4.490515232 13.471546173
115 2 0.0 0.0 4.490515232 22.452575684
116 2 0.0 0.0 4.490515232 31.433607101
117 2 0.0 0.0 5.388618469 7.184824944
118 2 0.0 0.0 5.388618469 16.1658535
119 2 0.0 0.0 5.388618469 25.146884918
120 2 0.0 0.0 5.388618469 34.127918243
121 2 0.0 1.420025706 1.796206236 0.898103118
122 2 0.0 1.420025706 1.796206236 9.879134178
123 2 0.0 1.420025706 1.796206236 18.860162735
124 2 0.0 1.420025706 1.796206236 27.841194153
125 2 0.0 1.420025706 8.08292675 1.796206236
126 2 0.0 1.420025706 8.08292675 10.777236938
127 2 0.0 1.420025706 8.08292675 19.758268356
128 2 0.0 1.420025706 8.08292675 28.739299774
129 2 0.0 1.420025706 0.0 4.490515232
130 2 0.0 1.420025706 0.0 13.471546173
131 2 0.0 1.420025706 0.0 22.452575684
132 2 0.0 1.420025706 0.0 31.433607101
133 2 0.0 1.420025706 0.898103297 7.184824944
134 2 0.0 1.420025706 0.898103297 16.1658535
135 2 0.0 1.420025706 0.898103297 25.146884918
136 2 0.0 1.420025706 0.898103297 34.127918243
137 2 0.0 1.420025706 2.694309235 3.592412472
138 2 0.0 1.420025706 2.694309235 12.573442459
139 2 0.0 1.420025706 2.694309235 21.554473877
140 2 0.0 1.420025706 2.694309235 30.535505295
141 2 0.0 1.420025706 3.592412472 6.286721706
142 2 0.0 1.420025706 3.592412472 15.267752647
143 2 0.0 1.420025706 3.592412472 24.248783112
144 2 0.0 1.420025706 3.592412472 33.229816437
145 2 0.0 1.420025706 4.490515232 0.0
146 2 0.0 1.420025706 4.490515232 8.981030464
147 2 0.0 1.420025706 4.490515232 17.962060928
148 2 0.0 1.420025706 4.490515232 26.943092346
149 2 0.0 1.420025706 5.388618469 2.694309235
150 2 0.0 1.420025706 5.388618469 11.675339699
151 2 0.0 1.420025706 5.388618469 20.656370163
152 2 0.0 1.420025706 5.388618469 29.637401581
153 2 0.0 1.420025706 6.28672123 5.388618469
154 2 0.0 1.420025706 6.28672123 14.369649887
155 2 0.0 1.420025706 6.28672123 23.350679398
156 2 0.0 1.420025706 6.28672123 32.331707001
157 2 0.0 1.420025706 7.184824944 8.082927704
158 2 0.0 1.420025706 7.184824944 17.063959122
159 2 0.0 1.420025706 7.184824944 26.04499054
160 2 0.0 1.420025706 7.184824944 35.02602005
