# LAMMPS data file written by Ovito Basic 3.0.0-dev791
1040 atoms
2 atom types
0.0 2.840051651 xlo xhi
0.0 22.897228241 ylo yhi
0.0 183.1778259277 zlo zhi

Atoms  # charge

1 1 0.0 0.0 0.0 91.588905334
2 1 0.0 0.0 0.0 114.486129761
3 1 0.0 0.0 0.0 137.383346558
4 1 0.0 0.0 0.0 160.280593872
5 1 0.0 0.0 2.818121433 91.941169739
6 1 0.0 0.0 2.818121433 114.838394165
7 1 0.0 0.0 2.818121433 137.735641479
8 1 0.0 0.0 2.818121433 160.632843018
9 1 0.0 0.0 2.465855122 94.759284973
10 1 0.0 0.0 2.465855122 117.656517029
11 1 0.0 0.0 2.465855122 140.553741455
12 1 0.0 0.0 2.465855122 163.450958252
13 1 0.0 0.0 2.113590002 97.577407837
14 1 0.0 0.0 2.113590002 120.474639893
15 1 0.0 0.0 2.113590002 143.371871948
16 1 0.0 0.0 2.113590002 166.269088745
17 1 0.0 0.0 1.761326313 100.395530701
18 1 0.0 0.0 1.761326313 123.292755127
19 1 0.0 0.0 1.761326313 146.190002441
20 1 0.0 0.0 1.761326313 169.087203979
21 1 0.0 0.0 1.409060001 103.213645935
22 1 0.0 0.0 1.409060001 126.110877991
23 1 0.0 0.0 1.409060001 149.008102417
24 1 0.0 0.0 1.409060001 171.905334473
25 1 0.0 0.0 1.056795001 106.031768799
26 1 0.0 0.0 1.056795001 128.929016113
27 1 0.0 0.0 1.056795001 151.82623291
28 1 0.0 0.0 1.056795001 174.723449707
29 1 0.0 0.0 0.704530001 108.849891663
30 1 0.0 0.0 0.704530001 131.747116089
31 1 0.0 0.0 0.704530001 154.644363403
32 1 0.0 0.0 0.704530001 177.5415802
33 1 0.0 0.0 0.352265 111.668006897
34 1 0.0 0.0 0.352265 134.565231323
35 1 0.0 0.0 0.352265 157.462463379
36 1 0.0 0.0 0.352265 180.359695435
37 1 0.0 0.0 22.544961929 94.407020569
38 1 0.0 0.0 22.544961929 117.304252625
39 1 0.0 0.0 22.544961929 140.201477051
40 1 0.0 0.0 22.544961929 163.098724365
41 1 0.0 0.0 22.192697525 97.225143433
42 1 0.0 0.0 22.192697525 120.122367859
43 1 0.0 0.0 22.192697525 143.019592285
44 1 0.0 0.0 22.192697525 165.916824341
45 1 0.0 0.0 21.840431213 100.043266296
46 1 0.0 0.0 21.840431213 122.940490723
47 1 0.0 0.0 21.840431213 145.83770752
48 1 0.0 0.0 21.840431213 168.734954834
49 1 0.0 0.0 21.488166809 102.861381531
50 1 0.0 0.0 21.488166809 125.758613586
51 1 0.0 0.0 21.488166809 148.655838013
52 1 0.0 0.0 21.488166809 171.553085327
53 1 0.0 0.0 21.135900497 105.679504395
54 1 0.0 0.0 21.135900497 128.576721191
55 1 0.0 0.0 21.135900497 151.473953247
56 1 0.0 0.0 21.135900497 174.371185303
57 1 0.0 0.0 20.783636093 108.497619629
58 1 0.0 0.0 20.783636093 131.394851685
59 1 0.0 0.0 20.783636093 154.292068481
60 1 0.0 0.0 20.783636093 177.189300537
61 1 0.0 0.0 20.431371689 111.315742493
62 1 0.0 0.0 20.431371689 134.212966919
63 1 0.0 0.0 20.431371689 157.110229492
64 1 0.0 0.0 20.431371689 180.007446289
65 1 0.0 0.0 20.079105377 114.133865356
66 1 0.0 0.0 20.079105377 137.031082153
67 1 0.0 0.0 20.079105377 159.928314209
68 1 0.0 0.0 20.079105377 182.825546265
69 1 0.0 0.0 19.726840973 94.054756165
70 1 0.0 0.0 19.726840973 116.951980591
71 1 0.0 0.0 19.726840973 139.849212646
72 1 0.0 0.0 19.726840973 162.746429443
73 1 0.0 0.0 19.374576569 96.872879028
74 1 0.0 0.0 19.374576569 119.770103455
75 1 0.0 0.0 19.374576569 142.667327881
76 1 0.0 0.0 19.374576569 165.564559937
77 1 0.0 0.0 19.022310257 99.690994263
78 1 0.0 0.0 19.022310257 122.588226318
79 1 0.0 0.0 19.022310257 145.485458374
80 1 0.0 0.0 19.022310257 168.382675171
81 1 0.0 0.0 18.670045853 102.509117126
82 1 0.0 0.0 18.670045853 125.406341553
83 1 0.0 0.0 18.670045853 148.303573608
84 1 0.0 0.0 18.670045853 171.200790405
85 1 0.0 0.0 18.317781448 105.32723999
86 1 0.0 0.0 18.317781448 128.224472046
87 1 0.0 0.0 18.317781448 151.121688843
88 1 0.0 0.0 18.317781448 174.018920898
89 1 0.0 0.0 17.965515137 108.145355225
90 1 0.0 0.0 17.965515137 131.042602539
91 1 0.0 0.0 17.965515137 153.939819336
92 1 0.0 0.0 17.965515137 176.837036133
93 1 0.0 0.0 17.613250732 110.963478088
94 1 0.0 0.0 17.613250732 133.860702515
95 1 0.0 0.0 17.613250732 156.75793457
96 1 0.0 0.0 17.613250732 179.655151367
97 1 0.0 0.0 17.260986328 113.781600952
98 1 0.0 0.0 17.260986328 136.678833008
99 1 0.0 0.0 17.260986328 159.576049805
100 1 0.0 0.0 17.260986328 182.47328186
101 1 0.0 0.0 16.908720016 93.70249176
102 1 0.0 0.0 16.908720016 116.599716187
103 1 0.0 0.0 16.908720016 139.496963501
104 1 0.0 0.0 16.908720016 162.394180298
105 1 0.0 0.0 16.556455612 96.520606995
106 1 0.0 0.0 16.556455612 119.41783905
107 1 0.0 0.0 16.556455612 142.315063477
108 1 0.0 0.0 16.556455612 165.212295532
109 1 0.0 0.0 16.204189301 99.338729858
110 1 0.0 0.0 16.204189301 122.235961914
111 1 0.0 0.0 16.204189301 145.13319397
112 1 0.0 0.0 16.204189301 168.030426025
113 1 0.0 0.0 15.85192585 102.156852722
114 1 0.0 0.0 15.85192585 125.054077148
115 1 0.0 0.0 15.85192585 147.951324463
116 1 0.0 0.0 15.85192585 170.84854126
117 1 0.0 0.0 15.499659538 104.974967957
118 1 0.0 0.0 15.499659538 127.872207642
119 1 0.0 0.0 15.499659538 150.769454956
120 1 0.0 0.0 15.499659538 173.666671753
121 1 0.0 0.0 15.147396088 107.79309082
122 1 0.0 0.0 15.147396088 130.690307617
123 1 0.0 0.0 15.147396088 153.587539673
124 1 0.0 0.0 15.147396088 176.484786987
125 1 0.0 0.0 14.795129776 110.611213684
126 1 0.0 0.0 14.795129776 133.50843811
127 1 0.0 0.0 14.795129776 156.405685425
128 1 0.0 0.0 14.795129776 179.302902222
129 1 0.0 0.0 14.442866325 113.429328918
130 1 0.0 0.0 14.442866325 136.326553345
131 1 0.0 0.0 14.442866325 159.2237854
132 1 0.0 0.0 14.442866325 182.121032715
133 1 0.0 0.0 14.090600014 93.350219727
134 1 0.0 0.0 14.090600014 116.247459412
135 1 0.0 0.0 14.090600014 139.144683838
136 1 0.0 0.0 14.090600014 162.041915894
137 1 0.0 0.0 13.738336563 96.16834259
138 1 0.0 0.0 13.738336563 119.065574646
139 1 0.0 0.0 13.738336563 141.962799072
140 1 0.0 0.0 13.738336563 164.860046387
141 1 0.0 0.0 13.386071205 98.986465454
142 1 0.0 0.0 13.386071205 121.883705139
143 1 0.0 0.0 13.386071205 144.780929565
144 1 0.0 0.0 13.386071205 167.678146362
145 1 0.0 0.0 13.033805847 101.804580688
146 1 0.0 0.0 13.033805847 124.701812744
147 1 0.0 0.0 13.033805847 147.599029541
148 1 0.0 0.0 13.033805847 170.496261597
149 1 0.0 0.0 12.681539536 104.622711182
150 1 0.0 0.0 12.681539536 127.519935608
151 1 0.0 0.0 12.681539536 150.417160034
152 1 0.0 0.0 12.681539536 173.31439209
153 1 0.0 0.0 12.329276085 107.440826416
154 1 0.0 0.0 12.329276085 130.338058472
155 1 0.0 0.0 12.329276085 153.235275269
156 1 0.0 0.0 12.329276085 176.132507324
157 1 0.0 0.0 11.977009773 110.258956909
158 1 0.0 0.0 11.977009773 133.156173706
159 1 0.0 0.0 11.977009773 156.053405762
160 1 0.0 0.0 11.977009773 178.950637817
161 1 0.0 0.0 11.624746323 113.077064514
162 1 0.0 0.0 11.624746323 135.97428894
163 1 0.0 0.0 11.624746323 158.871520996
164 1 0.0 0.0 11.624746323 181.768737793
165 1 0.0 0.0 11.272480011 92.997970581
166 1 0.0 0.0 11.272480011 115.895195007
167 1 0.0 0.0 11.272480011 138.792419434
168 1 0.0 0.0 11.272480011 161.689651489
169 1 0.0 0.0 10.920215607 95.816078186
170 1 0.0 0.0 10.920215607 118.713302612
171 1 0.0 0.0 10.920215607 141.610549927
172 1 0.0 0.0 10.920215607 164.507751465
173 1 0.0 0.0 10.567950249 98.634208679
174 1 0.0 0.0 10.567950249 121.531433105
175 1 0.0 0.0 10.567950249 144.428665161
176 1 0.0 0.0 10.567950249 167.325881958
177 1 0.0 0.0 10.215684891 101.452331543
178 1 0.0 0.0 10.215684891 124.349555969
179 1 0.0 0.0 10.215684891 147.246780396
180 1 0.0 0.0 10.215684891 170.143997192
181 1 0.0 0.0 9.863420486 104.270446777
182 1 0.0 0.0 9.863420486 127.167678833
183 1 0.0 0.0 9.863420486 150.064910889
184 1 0.0 0.0 9.863420486 172.962112427
185 1 0.0 0.0 9.511155128 107.088569641
186 1 0.0 0.0 9.511155128 129.985778809
187 1 0.0 0.0 9.511155128 152.883010864
188 1 0.0 0.0 9.511155128 175.78024292
189 1 0.0 0.0 9.158889771 109.906692505
190 1 0.0 0.0 9.158889771 132.803924561
191 1 0.0 0.0 9.158889771 155.701141357
192 1 0.0 0.0 9.158889771 178.598373413
193 1 0.0 0.0 8.806624413 112.72480011
194 1 0.0 0.0 8.806624413 135.622024536
195 1 0.0 0.0 8.806624413 158.519271851
196 1 0.0 0.0 8.806624413 181.416488647
197 1 0.0 0.0 8.454360008 92.645698547
198 1 0.0 0.0 8.454360008 115.542930603
199 1 0.0 0.0 8.454360008 138.440155029
200 1 0.0 0.0 8.454360008 161.337402344
201 1 0.0 0.0 8.10209465 95.463821411
202 1 0.0 0.0 8.10209465 118.361053467
203 1 0.0 0.0 8.10209465 141.258285522
204 1 0.0 0.0 8.10209465 164.155502319
205 1 0.0 0.0 7.749829769 98.281944275
206 1 0.0 0.0 7.749829769 121.179168701
207 1 0.0 0.0 7.749829769 144.076416016
208 1 0.0 0.0 7.749829769 166.973632813
209 1 0.0 0.0 7.397564888 101.100059509
210 1 0.0 0.0 7.397564888 123.997276306
211 1 0.0 0.0 7.397564888 146.894500732
212 1 0.0 0.0 7.397564888 169.791763306
213 1 0.0 0.0 7.045300007 103.918182373
214 1 0.0 0.0 7.045300007 126.815406799
215 1 0.0 0.0 7.045300007 149.712631226
216 1 0.0 0.0 7.045300007 172.609863281
217 1 0.0 0.0 6.693034649 106.736305237
218 1 0.0 0.0 6.693034649 129.633514404
219 1 0.0 0.0 6.693034649 152.530776978
220 1 0.0 0.0 6.693034649 175.427993774
221 1 0.0 0.0 6.340769768 109.554420471
222 1 0.0 0.0 6.340769768 132.451644897
223 1 0.0 0.0 6.340769768 155.348876953
224 1 0.0 0.0 6.340769768 178.24609375
225 1 0.0 0.0 5.988506317 112.372543335
226 1 0.0 0.0 5.988506317 135.269760132
227 1 0.0 0.0 5.988506317 158.166976929
228 1 0.0 0.0 5.988506317 181.064224243
229 1 0.0 0.0 5.636240005 92.293434143
230 1 0.0 0.0 5.636240005 115.190666199
231 1 0.0 0.0 5.636240005 138.087890625
232 1 0.0 0.0 5.636240005 160.985137939
233 1 0.0 0.0 5.283975124 95.111557007
234 1 0.0 0.0 5.283975124 118.008781433
235 1 0.0 0.0 5.283975124 140.906005859
236 1 0.0 0.0 5.283975124 163.803237915
237 1 0.0 0.0 4.931711197 97.929672241
238 1 0.0 0.0 4.931711197 120.826904297
239 1 0.0 0.0 4.931711197 143.724121094
240 1 0.0 0.0 4.931711197 166.621353149
241 1 0.0 0.0 4.579444885 100.747795105
242 1 0.0 0.0 4.579444885 123.645027161
243 1 0.0 0.0 4.579444885 146.542251587
244 1 0.0 0.0 4.579444885 169.439468384
245 1 0.0 0.0 4.227180004 103.565917969
246 1 0.0 0.0 4.227180004 126.463142395
247 1 0.0 0.0 4.227180004 149.360366821
248 1 0.0 0.0 4.227180004 172.257598877
249 1 0.0 0.0 3.874916315 106.384033203
250 1 0.0 0.0 3.874916315 129.281265259
251 1 0.0 0.0 3.874916315 152.178482056
252 1 0.0 0.0 3.874916315 175.075714111
253 1 0.0 0.0 3.522650003 109.202156067
254 1 0.0 0.0 3.522650003 132.099380493
255 1 0.0 0.0 3.522650003 154.996612549
256 1 0.0 0.0 3.522650003 177.893829346
257 1 0.0 0.0 3.170384884 112.020278931
258 1 0.0 0.0 3.170384884 134.917510986
259 1 0.0 0.0 3.170384884 157.814727783
260 1 0.0 0.0 3.170384884 180.711990356
261 1 0.0 1.420025706 21.3120327 92.82183075
262 1 0.0 1.420025706 21.3120327 115.719062805
263 1 0.0 1.420025706 21.3120327 138.616287231
264 1 0.0 1.420025706 21.3120327 161.513519287
265 1 0.0 1.420025706 1.232926965 93.174087524
266 1 0.0 1.420025706 1.232926965 116.071327209
267 1 0.0 1.420025706 1.232926965 138.968551636
268 1 0.0 1.420025706 1.232926965 161.865783691
269 1 0.0 1.420025706 0.880660415 95.992210388
270 1 0.0 1.420025706 0.880660415 118.889434814
271 1 0.0 1.420025706 0.880660415 141.78666687
272 1 0.0 1.420025706 0.880660415 164.683898926
273 1 0.0 1.420025706 0.528396845 98.810340881
274 1 0.0 1.420025706 0.528396845 121.707572937
275 1 0.0 1.420025706 0.528396845 144.604797363
276 1 0.0 1.420025706 0.528396845 167.50201416
277 1 0.0 1.420025706 0.176131815 101.628448486
278 1 0.0 1.420025706 0.176131815 124.525680542
279 1 0.0 1.420025706 0.176131815 147.422912598
280 1 0.0 1.420025706 0.176131815 170.320129395
281 1 0.0 1.420025706 22.721092224 104.446578979
282 1 0.0 1.420025706 22.721092224 127.343811035
283 1 0.0 1.420025706 22.721092224 150.241027832
284 1 0.0 1.420025706 22.721092224 173.138259888
285 1 0.0 1.420025706 22.368829727 107.264701843
286 1 0.0 1.420025706 22.368829727 130.16192627
287 1 0.0 1.420025706 22.368829727 153.059143066
288 1 0.0 1.420025706 22.368829727 175.956375122
289 1 0.0 1.420025706 22.016563416 110.082824707
290 1 0.0 1.420025706 22.016563416 132.980056763
291 1 0.0 1.420025706 22.016563416 155.87727356
292 1 0.0 1.420025706 22.016563416 178.774505615
293 1 0.0 1.420025706 21.664299011 112.900939941
294 1 0.0 1.420025706 21.664299011 135.798156738
295 1 0.0 1.420025706 21.664299011 158.695388794
296 1 0.0 1.420025706 21.664299011 181.59262085
297 1 0.0 1.420025706 20.959768295 95.639953613
298 1 0.0 1.420025706 20.959768295 118.53717041
299 1 0.0 1.420025706 20.959768295 141.434417725
300 1 0.0 1.420025706 20.959768295 164.331634521
301 1 0.0 1.420025706 20.607505798 98.458076477
302 1 0.0 1.420025706 20.607505798 121.355300903
303 1 0.0 1.420025706 20.607505798 144.252548218
304 1 0.0 1.420025706 20.607505798 167.149749756
305 1 0.0 1.420025706 20.255237579 101.276191711
306 1 0.0 1.420025706 20.255237579 124.173416138
307 1 0.0 1.420025706 20.255237579 147.070648193
308 1 0.0 1.420025706 20.255237579 169.96786499
309 1 0.0 1.420025706 19.902973175 104.094314575
310 1 0.0 1.420025706 19.902973175 126.991546631
311 1 0.0 1.420025706 19.902973175 149.888778687
312 1 0.0 1.420025706 19.902973175 172.785995483
313 1 0.0 1.420025706 19.550710678 106.912437439
314 1 0.0 1.420025706 19.550710678 129.809661865
315 1 0.0 1.420025706 19.550710678 152.70690918
316 1 0.0 1.420025706 19.550710678 175.604125977
317 1 0.0 1.420025706 19.198442459 109.730552673
318 1 0.0 1.420025706 19.198442459 132.6277771
319 1 0.0 1.420025706 19.198442459 155.525009155
320 1 0.0 1.420025706 19.198442459 178.422241211
321 1 0.0 1.420025706 18.846178055 112.548675537
322 1 0.0 1.420025706 18.846178055 135.445892334
323 1 0.0 1.420025706 18.846178055 158.343139648
324 1 0.0 1.420025706 18.846178055 181.240356445
325 1 0.0 1.420025706 18.493915558 92.469566345
326 1 0.0 1.420025706 18.493915558 115.366798401
327 1 0.0 1.420025706 18.493915558 138.264022827
328 1 0.0 1.420025706 18.493915558 161.161270142
329 1 0.0 1.420025706 18.141649246 95.287689209
330 1 0.0 1.420025706 18.141649246 118.184913635
331 1 0.0 1.420025706 18.141649246 141.082122803
332 1 0.0 1.420025706 18.141649246 163.979354858
333 1 0.0 1.420025706 17.789382935 98.105812073
334 1 0.0 1.420025706 17.789382935 121.003036499
335 1 0.0 1.420025706 17.789382935 143.900253296
336 1 0.0 1.420025706 17.789382935 166.79750061
337 1 0.0 1.420025706 17.437120438 100.923927307
338 1 0.0 1.420025706 17.437120438 123.821159363
339 1 0.0 1.420025706 17.437120438 146.718383789
340 1 0.0 1.420025706 17.437120438 169.615631104
341 1 0.0 1.420025706 17.084854126 103.742050171
342 1 0.0 1.420025706 17.084854126 126.639274597
343 1 0.0 1.420025706 17.084854126 149.536499023
344 1 0.0 1.420025706 17.084854126 172.433731079
345 1 0.0 1.420025706 16.732587814 106.560165405
346 1 0.0 1.420025706 16.732587814 129.457397461
347 1 0.0 1.420025706 16.732587814 152.354614258
348 1 0.0 1.420025706 16.732587814 175.251831055
349 1 0.0 1.420025706 16.380325317 109.378288269
350 1 0.0 1.420025706 16.380325317 132.275512695
351 1 0.0 1.420025706 16.380325317 155.172744751
352 1 0.0 1.420025706 16.380325317 178.069992065
353 1 0.0 1.420025706 16.028059006 112.196411133
354 1 0.0 1.420025706 16.028059006 135.09362793
355 1 0.0 1.420025706 16.028059006 157.990859985
356 1 0.0 1.420025706 16.028059006 180.888092041
357 1 0.0 1.420025706 15.675792694 92.117301941
358 1 0.0 1.420025706 15.675792694 115.014526367
359 1 0.0 1.420025706 15.675792694 137.911758423
360 1 0.0 1.420025706 15.675792694 160.80897522
361 1 0.0 1.420025706 15.32352829 94.935424805
362 1 0.0 1.420025706 15.32352829 117.832649231
363 1 0.0 1.420025706 15.32352829 140.729873657
364 1 0.0 1.420025706 15.32352829 163.627105713
365 1 0.0 1.420025706 14.971262932 97.753540039
366 1 0.0 1.420025706 14.971262932 120.650772095
367 1 0.0 1.420025706 14.971262932 143.54800415
368 1 0.0 1.420025706 14.971262932 166.445220947
369 1 0.0 1.420025706 14.618997574 100.571662903
370 1 0.0 1.420025706 14.618997574 123.468887329
371 1 0.0 1.420025706 14.618997574 146.366119385
372 1 0.0 1.420025706 14.618997574 169.263336182
373 1 0.0 1.420025706 14.26673317 103.389785767
374 1 0.0 1.420025706 14.26673317 126.287010193
375 1 0.0 1.420025706 14.26673317 149.184234619
376 1 0.0 1.420025706 14.26673317 172.081466675
377 1 0.0 1.420025706 13.914469719 106.207901001
378 1 0.0 1.420025706 13.914469719 129.105148315
379 1 0.0 1.420025706 13.914469719 152.002365112
380 1 0.0 1.420025706 13.914469719 174.899581909
381 1 0.0 1.420025706 13.562202454 109.026023865
382 1 0.0 1.420025706 13.562202454 131.923248291
383 1 0.0 1.420025706 13.562202454 154.820480347
384 1 0.0 1.420025706 13.562202454 177.717697144
385 1 0.0 1.420025706 13.209938049 111.844146729
386 1 0.0 1.420025706 13.209938049 134.741378784
387 1 0.0 1.420025706 13.209938049 157.638595581
388 1 0.0 1.420025706 13.209938049 180.535812378
389 1 0.0 1.420025706 12.857672691 91.765037537
390 1 0.0 1.420025706 12.857672691 114.662261963
391 1 0.0 1.420025706 12.857672691 137.559509277
392 1 0.0 1.420025706 12.857672691 160.456726074
393 1 0.0 1.420025706 12.505408287 94.583152771
394 1 0.0 1.420025706 12.505408287 117.480384827
395 1 0.0 1.420025706 12.505408287 140.377609253
396 1 0.0 1.420025706 12.505408287 163.274841309
397 1 0.0 1.420025706 12.153142929 97.401275635
398 1 0.0 1.420025706 12.153142929 120.29850769
399 1 0.0 1.420025706 12.153142929 143.195739746
400 1 0.0 1.420025706 12.153142929 166.092956543
401 1 0.0 1.420025706 11.800877571 100.219398499
402 1 0.0 1.420025706 11.800877571 123.116622925
403 1 0.0 1.420025706 11.800877571 146.013870239
404 1 0.0 1.420025706 11.800877571 168.911087036
405 1 0.0 1.420025706 11.448613167 103.037513733
406 1 0.0 1.420025706 11.448613167 125.934745789
407 1 0.0 1.420025706 11.448613167 148.831970215
408 1 0.0 1.420025706 11.448613167 171.729217529
409 1 0.0 1.420025706 11.096348763 105.855636597
410 1 0.0 1.420025706 11.096348763 128.752853394
411 1 0.0 1.420025706 11.096348763 151.650085449
412 1 0.0 1.420025706 11.096348763 174.547317505
413 1 0.0 1.420025706 10.744083405 108.67375946
414 1 0.0 1.420025706 10.744083405 131.570983887
415 1 0.0 1.420025706 10.744083405 154.468231201
416 1 0.0 1.420025706 10.744083405 177.365447998
417 1 0.0 1.420025706 10.391818047 111.491874695
418 1 0.0 1.420025706 10.391818047 134.389099121
419 1 0.0 1.420025706 10.391818047 157.286331177
420 1 0.0 1.420025706 10.391818047 180.183578491
421 1 0.0 1.420025706 10.039552689 114.309997559
422 1 0.0 1.420025706 10.039552689 137.207214355
423 1 0.0 1.420025706 10.039552689 160.104446411
424 1 0.0 1.420025706 10.039552689 183.001678467
425 1 0.0 1.420025706 9.687287331 94.230888367
426 1 0.0 1.420025706 9.687287331 117.128120422
427 1 0.0 1.420025706 9.687287331 140.025344849
428 1 0.0 1.420025706 9.687287331 162.922592163
429 1 0.0 1.420025706 9.335022926 97.04901123
430 1 0.0 1.420025706 9.335022926 119.946235657
431 1 0.0 1.420025706 9.335022926 142.843460083
432 1 0.0 1.420025706 9.335022926 165.740692139
433 1 0.0 1.420025706 8.982756615 99.867126465
434 1 0.0 1.420025706 8.982756615 122.764358521
435 1 0.0 1.420025706 8.982756615 145.661575317
436 1 0.0 1.420025706 8.982756615 168.558807373
437 1 0.0 1.420025706 8.63049221 102.685249329
438 1 0.0 1.420025706 8.63049221 125.582481384
439 1 0.0 1.420025706 8.63049221 148.479705811
440 1 0.0 1.420025706 8.63049221 171.376922607
441 1 0.0 1.420025706 8.278226852 105.503372192
442 1 0.0 1.420025706 8.278226852 128.400604248
443 1 0.0 1.420025706 8.278226852 151.297821045
444 1 0.0 1.420025706 8.278226852 174.195053101
445 1 0.0 1.420025706 7.925961971 108.321487427
446 1 0.0 1.420025706 7.925961971 131.218719482
447 1 0.0 1.420025706 7.925961971 154.115936279
448 1 0.0 1.420025706 7.925961971 177.013168335
449 1 0.0 1.420025706 7.573696613 111.139610291
450 1 0.0 1.420025706 7.573696613 134.036849976
451 1 0.0 1.420025706 7.573696613 156.934051514
452 1 0.0 1.420025706 7.573696613 179.831283569
453 1 0.0 1.420025706 7.221431732 113.957733154
454 1 0.0 1.420025706 7.221431732 136.85496521
455 1 0.0 1.420025706 7.221431732 159.752182007
456 1 0.0 1.420025706 7.221431732 182.649414063
457 1 0.0 1.420025706 6.869166851 93.878623962
458 1 0.0 1.420025706 6.869166851 116.775848389
459 1 0.0 1.420025706 6.869166851 139.673095703
460 1 0.0 1.420025706 6.869166851 162.570297241
461 1 0.0 1.420025706 6.516901493 96.696739197
462 1 0.0 1.420025706 6.516901493 119.593971252
463 1 0.0 1.420025706 6.516901493 142.491195679
464 1 0.0 1.420025706 6.516901493 165.388427734
465 1 0.0 1.420025706 6.164635181 99.514862061
466 1 0.0 1.420025706 6.164635181 122.412094116
467 1 0.0 1.420025706 6.164635181 145.309326172
468 1 0.0 1.420025706 6.164635181 168.206542969
469 1 0.0 1.420025706 5.812371731 102.332984924
470 1 0.0 1.420025706 5.812371731 125.230209351
471 1 0.0 1.420025706 5.812371731 148.127456665
472 1 0.0 1.420025706 5.812371731 171.024658203
473 1 0.0 1.420025706 5.46010685 105.151100159
474 1 0.0 1.420025706 5.46010685 128.048339844
475 1 0.0 1.420025706 5.46010685 150.945571899
476 1 0.0 1.420025706 5.46010685 173.842788696
477 1 0.0 1.420025706 5.107840538 107.969223022
478 1 0.0 1.420025706 5.107840538 130.866470337
479 1 0.0 1.420025706 5.107840538 153.763687134
480 1 0.0 1.420025706 5.107840538 176.660903931
481 1 0.0 1.420025706 4.755577087 110.787345886
482 1 0.0 1.420025706 4.755577087 133.68460083
483 1 0.0 1.420025706 4.755577087 156.581817627
484 1 0.0 1.420025706 4.755577087 179.479034424
485 1 0.0 1.420025706 4.403311729 113.605461121
486 1 0.0 1.420025706 4.403311729 136.502685547
487 1 0.0 1.420025706 4.403311729 159.39994812
488 1 0.0 1.420025706 4.403311729 182.297149658
489 1 0.0 1.420025706 4.051045418 93.526359558
490 1 0.0 1.420025706 4.051045418 116.423583984
491 1 0.0 1.420025706 4.051045418 139.320831299
492 1 0.0 1.420025706 4.051045418 162.218048096
493 1 0.0 1.420025706 3.698781729 96.344474792
494 1 0.0 1.420025706 3.698781729 119.241706848
495 1 0.0 1.420025706 3.698781729 142.138931274
496 1 0.0 1.420025706 3.698781729 165.036178589
497 1 0.0 1.420025706 3.346516848 99.162597656
498 1 0.0 1.420025706 3.346516848 122.059837341
499 1 0.0 1.420025706 3.346516848 144.957061768
500 1 0.0 1.420025706 3.346516848 167.854309082
501 1 0.0 1.420025706 2.994250298 101.98072052
502 1 0.0 1.420025706 2.994250298 124.877944946
503 1 0.0 1.420025706 2.994250298 147.775161743
504 1 0.0 1.420025706 2.994250298 170.672409058
505 1 0.0 1.420025706 2.641986847 104.798851013
506 1 0.0 1.420025706 2.641986847 127.696075439
507 1 0.0 1.420025706 2.641986847 150.593322754
508 1 0.0 1.420025706 2.641986847 173.490539551
509 1 0.0 1.420025706 2.289721727 107.616958618
510 1 0.0 1.420025706 2.289721727 130.514175415
511 1 0.0 1.420025706 2.289721727 153.411407471
512 1 0.0 1.420025706 2.289721727 176.308639526
513 1 0.0 1.420025706 1.937455416 110.435089111
514 1 0.0 1.420025706 1.937455416 133.332305908
515 1 0.0 1.420025706 1.937455416 156.229537964
516 1 0.0 1.420025706 1.937455416 179.12677002
517 1 0.0 1.420025706 1.585191727 113.253196716
518 1 0.0 1.420025706 1.585191727 136.150436401
519 1 0.0 1.420025706 1.585191727 159.047653198
520 1 0.0 1.420025706 1.585191727 181.944900513
521 2 0.0 0.0 0.0 0.0
522 2 0.0 0.0 0.0 22.897226334
523 2 0.0 0.0 0.0 45.794452667
524 2 0.0 0.0 0.0 68.691673279
525 2 0.0 0.0 20.079105377 0.35226503
526 2 0.0 0.0 20.079105377 23.249492645
527 2 0.0 0.0 20.079105377 46.146717072
528 2 0.0 0.0 20.079105377 69.043945313
529 2 0.0 0.0 20.431371689 3.170385361
530 2 0.0 0.0 20.431371689 26.067611694
531 2 0.0 0.0 20.431371689 48.964836121
532 2 0.0 0.0 20.431371689 71.862060547
533 2 0.0 0.0 20.783636093 5.988505363
534 2 0.0 0.0 20.783636093 28.885732651
535 2 0.0 0.0 20.783636093 51.782958984
536 2 0.0 0.0 20.783636093 74.680183411
537 2 0.0 0.0 21.135900497 8.806625366
538 2 0.0 0.0 21.135900497 31.7038517
539 2 0.0 0.0 21.135900497 54.601078033
540 2 0.0 0.0 21.135900497 77.498306274
541 2 0.0 0.0 21.488166809 11.624746323
542 2 0.0 0.0 21.488166809 34.521972656
543 2 0.0 0.0 21.488166809 57.419197083
544 2 0.0 0.0 21.488166809 80.316421509
545 2 0.0 0.0 21.840431213 14.442866325
546 2 0.0 0.0 21.840431213 37.340091705
547 2 0.0 0.0 21.840431213 60.237319946
548 2 0.0 0.0 21.840431213 83.134544373
549 2 0.0 0.0 22.192697525 17.260986328
550 2 0.0 0.0 22.192697525 40.158210754
551 2 0.0 0.0 22.192697525 63.055438995
552 2 0.0 0.0 22.192697525 85.952667236
553 2 0.0 0.0 22.544961929 20.079105377
554 2 0.0 0.0 22.544961929 42.976333618
555 2 0.0 0.0 22.544961929 65.873558044
556 2 0.0 0.0 22.544961929 88.7707901
557 2 0.0 0.0 0.35226503 2.818120241
558 2 0.0 0.0 0.35226503 25.715345383
559 2 0.0 0.0 0.35226503 48.612571716
560 2 0.0 0.0 0.35226503 71.509796143
561 2 0.0 0.0 0.70453006 5.636240482
562 2 0.0 0.0 0.70453006 28.533466339
563 2 0.0 0.0 0.70453006 51.430690765
564 2 0.0 0.0 0.70453006 74.327919006
565 2 0.0 0.0 1.056795001 8.454360008
566 2 0.0 0.0 1.056795001 31.351585388
567 2 0.0 0.0 1.056795001 54.248809814
568 2 0.0 0.0 1.056795001 77.146034241
569 2 0.0 0.0 1.409060121 11.272480965
570 2 0.0 0.0 1.409060121 34.169708252
571 2 0.0 0.0 1.409060121 57.066932678
572 2 0.0 0.0 1.409060121 79.964157104
573 2 0.0 0.0 1.761325121 14.090600967
574 2 0.0 0.0 1.761325121 36.987831116
575 2 0.0 0.0 1.761325121 59.885051727
576 2 0.0 0.0 1.761325121 82.782279968
577 2 0.0 0.0 2.113590002 16.908720016
578 2 0.0 0.0 2.113590002 39.80594635
579 2 0.0 0.0 2.113590002 62.703170776
580 2 0.0 0.0 2.113590002 85.600395203
581 2 0.0 0.0 2.465855122 19.726840973
582 2 0.0 0.0 2.465855122 42.624065399
583 2 0.0 0.0 2.465855122 65.52130127
584 2 0.0 0.0 2.465855122 88.418518066
585 2 0.0 0.0 2.818120241 22.544961929
586 2 0.0 0.0 2.818120241 45.442184448
587 2 0.0 0.0 2.818120241 68.339416504
588 2 0.0 0.0 2.818120241 91.23664093
589 2 0.0 0.0 3.170385361 2.465855122
590 2 0.0 0.0 3.170385361 25.363082886
591 2 0.0 0.0 3.170385361 48.260303497
592 2 0.0 0.0 3.170385361 71.157531738
593 2 0.0 0.0 3.522650242 5.283975124
594 2 0.0 0.0 3.522650242 28.181200027
595 2 0.0 0.0 3.522650242 51.078426361
596 2 0.0 0.0 3.522650242 73.975662231
597 2 0.0 0.0 3.874915361 8.102095604
598 2 0.0 0.0 3.874915361 30.999322891
599 2 0.0 0.0 3.874915361 53.89654541
600 2 0.0 0.0 3.874915361 76.793769836
601 2 0.0 0.0 4.227180004 10.920215607
602 2 0.0 0.0 4.227180004 33.817440033
603 2 0.0 0.0 4.227180004 56.714664459
604 2 0.0 0.0 4.227180004 79.6118927
605 2 0.0 0.0 4.579445362 13.738336563
606 2 0.0 0.0 4.579445362 36.635562897
607 2 0.0 0.0 4.579445362 59.532787323
608 2 0.0 0.0 4.579445362 82.430023193
609 2 0.0 0.0 4.931710243 16.556455612
610 2 0.0 0.0 4.931710243 39.453681946
611 2 0.0 0.0 4.931710243 62.350906372
612 2 0.0 0.0 4.931710243 85.248130798
613 2 0.0 0.0 5.283975124 19.374576569
614 2 0.0 0.0 5.283975124 42.271800995
615 2 0.0 0.0 5.283975124 65.169029236
616 2 0.0 0.0 5.283975124 88.066253662
617 2 0.0 0.0 5.636240482 22.192697525
618 2 0.0 0.0 5.636240482 45.089923859
619 2 0.0 0.0 5.636240482 67.98714447
620 2 0.0 0.0 5.636240482 90.884368896
621 2 0.0 0.0 5.988505363 2.113590002
622 2 0.0 0.0 5.988505363 25.010816574
623 2 0.0 0.0 5.988505363 47.908039093
624 2 0.0 0.0 5.988505363 70.805274963
625 2 0.0 0.0 6.340770721 4.931710243
626 2 0.0 0.0 6.340770721 27.828935623
627 2 0.0 0.0 6.340770721 50.726165771
628 2 0.0 0.0 6.340770721 73.623390198
629 2 0.0 0.0 6.693035603 7.749830723
630 2 0.0 0.0 6.693035603 30.64705658
631 2 0.0 0.0 6.693035603 53.544284821
632 2 0.0 0.0 6.693035603 76.441513062
633 2 0.0 0.0 7.045300484 10.567950249
634 2 0.0 0.0 7.045300484 33.465175629
635 2 0.0 0.0 7.045300484 56.362400055
636 2 0.0 0.0 7.045300484 79.259635925
637 2 0.0 0.0 7.397565842 13.386071205
638 2 0.0 0.0 7.397565842 36.283298492
639 2 0.0 0.0 7.397565842 59.180526733
640 2 0.0 0.0 7.397565842 82.07775116
641 2 0.0 0.0 7.749830723 16.204191208
642 2 0.0 0.0 7.749830723 39.101421356
643 2 0.0 0.0 7.749830723 61.998645782
644 2 0.0 0.0 7.749830723 84.895881653
645 2 0.0 0.0 8.102095604 19.022310257
646 2 0.0 0.0 8.102095604 41.919536591
647 2 0.0 0.0 8.102095604 64.816757202
648 2 0.0 0.0 8.102095604 87.713996887
649 2 0.0 0.0 8.454360008 21.840431213
650 2 0.0 0.0 8.454360008 44.737659454
651 2 0.0 0.0 8.454360008 67.634880066
652 2 0.0 0.0 8.454360008 90.532112122
653 2 0.0 0.0 8.806625366 1.761325121
654 2 0.0 0.0 8.806625366 24.65855217
655 2 0.0 0.0 8.806625366 47.555778503
656 2 0.0 0.0 8.806625366 70.45300293
657 2 0.0 0.0 9.158890724 4.579445362
658 2 0.0 0.0 9.158890724 27.476673126
659 2 0.0 0.0 9.158890724 50.373897552
660 2 0.0 0.0 9.158890724 73.271125793
661 2 0.0 0.0 9.511155128 7.397565842
662 2 0.0 0.0 9.511155128 30.294792175
663 2 0.0 0.0 9.511155128 53.192016602
664 2 0.0 0.0 9.511155128 76.089241028
665 2 0.0 0.0 9.863420486 10.215685844
666 2 0.0 0.0 9.863420486 33.112911224
667 2 0.0 0.0 9.863420486 56.010139465
668 2 0.0 0.0 9.863420486 78.907363892
669 2 0.0 0.0 10.215685844 13.033805847
670 2 0.0 0.0 10.215685844 35.931030273
671 2 0.0 0.0 10.215685844 58.828258514
672 2 0.0 0.0 10.215685844 81.725486755
673 2 0.0 0.0 10.567950249 15.85192585
674 2 0.0 0.0 10.567950249 38.749153137
675 2 0.0 0.0 10.567950249 61.646377563
676 2 0.0 0.0 10.567950249 84.54360199
677 2 0.0 0.0 10.920215607 18.670045853
678 2 0.0 0.0 10.920215607 41.567272186
679 2 0.0 0.0 10.920215607 64.464508057
680 2 0.0 0.0 10.920215607 87.361724854
681 2 0.0 0.0 11.272480965 21.488166809