9202
Atoms. Timestep: 0
Si 0 0 0
C -1.5405e-05 1.77883 0.692413
Si -1.5405e-05 1.77883 2.79637
C -3.62256e-13 -6.27445e-13 3.49554
Si -5.22312e-13 -9.04671e-13 5.03999
C 1.54052 0.889399 5.7324
Si 1.54052 0.889399 7.83636
C -8.84568e-13 -1.53212e-12 8.53553
Si -1.04496e-12 -1.80992e-12 10.0832
C -1.5405e-05 1.77883 10.7756
Si -1.5405e-05 1.77883 12.8796
C -1.40721e-12 -2.43737e-12 13.5787
Si -1.56727e-12 -2.71459e-12 15.1232
C 1.54052 0.889399 15.8156
Si 1.54052 0.889399 17.9196
C -1.92953e-12 -3.34204e-12 18.6187
Si -2.08992e-12 -3.61984e-12 20.1664
C -1.5405e-05 1.77883 20.8588
Si -1.5405e-05 1.77883 22.9628
C -2.45217e-12 -4.24729e-12 23.6619
Si -2.61223e-12 -4.52451e-12 25.2064
C 1.54052 0.889399 25.8988
Si 1.54052 0.889399 28.0028
C -2.97448e-12 -5.15196e-12 28.7019
Si -3.13487e-12 -5.42976e-12 30.2496
C -1.5405e-05 1.77883 30.942
Si -1.5405e-05 1.77883 33.046
C -3.49713e-12 -6.05721e-12 33.7451
Si -3.65719e-12 -6.33443e-12 35.2896
C 1.54052 0.889399 35.982
Si 1.54052 0.889399 38.086
C -4.01944e-12 -6.96188e-12 38.7851
Si -4.17983e-12 -7.23968e-12 40.3328
C -1.5405e-05 1.77883 41.0252
Si -1.5405e-05 1.77883 43.1292
C -4.54209e-12 -7.86713e-12 43.8283
Si -4.70215e-12 -8.14435e-12 45.3728
C 1.54052 0.889399 46.0652
Si 1.54052 0.889399 48.1692
C -5.0644e-12 -8.7718e-12 48.8683
Si -5.22479e-12 -9.0496e-12 50.416
C -1.5405e-05 1.77883 51.1084
Si -1.5405e-05 1.77883 53.2124
C -5.58705e-12 -9.67705e-12 53.9115
Si -5.7471e-12 -9.95428e-12 55.456
C 1.54052 0.889399 56.1484
Si 1.54052 0.889399 58.2524
C -6.10936e-12 -1.05817e-11 58.9515
Si -6.26975e-12 -1.08595e-11 60.4992
C -1.5405e-05 1.77883 61.1916
Si -1.5405e-05 1.77883 63.2956
C -6.63201e-12 -1.1487e-11 63.9947
Si -6.79206e-12 -1.17642e-11 65.5392
C 1.54052 0.889399 66.2316
Si 1.54052 0.889399 68.3356
C -7.15432e-12 -1.23916e-11 69.0347
Si -7.31471e-12 -1.26694e-11 70.5824
C -1.5405e-05 1.77883 71.2748
Si -1.5405e-05 1.77883 73.3788
C -7.67696e-12 -1.32969e-11 74.0779
Si -7.83702e-12 -1.35741e-11 75.6224
C 1.54052 0.889399 76.3148
Si 1.54052 0.889399 78.4188
C -8.19928e-12 -1.42016e-11 79.1179
Si -8.35967e-12 -1.44794e-11 80.6656
C -1.5405e-05 1.77883 81.358
Si -1.5405e-05 1.77883 83.462
C -8.72192e-12 -1.51068e-11 84.1611
Si -8.88198e-12 -1.5384e-11 85.7056
C 1.54052 0.889399 86.398
Si 1.54052 0.889399 88.502
C -9.24423e-12 -1.60115e-11 89.2011
Si -1.5405 2.66822 0
C -1.54052 4.44705 0.692413
Si -1.54052 4.44705 2.79637
C -1.5405 2.66822 3.49554
Si -1.5405 2.66822 5.03999
C 1.5405e-05 3.55762 5.7324
Si 1.5405e-05 3.55762 7.83636
C -1.5405 2.66822 8.53553
Si -1.5405 2.66822 10.0832
C -1.54052 4.44705 10.7756
Si -1.54052 4.44705 12.8796
C -1.5405 2.66822 13.5787
Si -1.5405 2.66822 15.1232
C 1.5405e-05 3.55762 15.8156
Si 1.5405e-05 3.55762 17.9196
C -1.5405 2.66822 18.6187
Si -1.5405 2.66822 20.1664
C -1.54052 4.44705 20.8588
Si -1.54052 4.44705 22.9628
C -1.5405 2.66822 23.6619
Si -1.5405 2.66822 25.2064
C 1.5405e-05 3.55762 25.8988
Si 1.5405e-05 3.55762 28.0028
C -1.5405 2.66822 28.7019
Si -1.5405 2.66822 30.2496
C -1.54052 4.44705 30.942
Si -1.54052 4.44705 33.046
C -1.5405 2.66822 33.7451
Si -1.5405 2.66822 35.2896
C 1.5405e-05 3.55762 35.982
Si 1.5405e-05 3.55762 38.086
C -1.5405 2.66822 38.7851
Si -1.5405 2.66822 40.3328
C -1.54052 4.44705 41.0252
Si -1.54052 4.44705 43.1292
C -1.5405 2.66822 43.8283
Si -1.5405 2.66822 45.3728
C 1.5405e-05 3.55762 46.0652
Si 1.5405e-05 3.55762 48.1692
C -1.5405 2.66822 48.8683
Si -1.5405 2.66822 50.416
C -1.54052 4.44705 51.1084
Si -1.54052 4.44705 53.2124
C -1.5405 2.66822 53.9115
Si -1.5405 2.66822 55.456
C 1.5405e-05 3.55762 56.1484
Si 1.5405e-05 3.55762 58.2524
C -1.5405 2.66822 58.9515
Si -1.5405 2.66822 60.4992
C -1.54052 4.44705 61.1916
Si -1.54052 4.44705 63.2956
C -1.5405 2.66822 63.9947
Si -1.5405 2.66822 65.5392
C 1.5405e-05 3.55762 66.2316
Si 1.5405e-05 3.55762 68.3356
C -1.5405 2.66822 69.0347
Si -1.5405 2.66822 70.5824
C -1.54052 4.44705 71.2748
Si -1.54052 4.44705 73.3788
C -1.5405 2.66822 74.0779
Si -1.5405 2.66822 75.6224
C 1.5405e-05 3.55762 76.3148
Si 1.5405e-05 3.55762 78.4188
C -1.5405 2.66822 79.1179
Si -1.5405 2.66822 80.6656
C -1.54052 4.44705 81.358
Si -1.54052 4.44705 83.462
C -1.5405 2.66822 84.1611
Si -1.5405 2.66822 85.7056
C 1.5405e-05 3.55762 86.398
Si 1.5405e-05 3.55762 88.502
C -1.5405 2.66822 89.2011
Si -3.081 5.33645 0
C -3.08102 7.11527 0.692413
Si -3.08102 7.11527 2.79637
C -3.081 5.33645 3.49554
Si -3.081 5.33645 5.03999
C -1.54048 6.22585 5.7324
Si -1.54048 6.22585 7.83636
C -3.081 5.33645 8.53553
Si -3.081 5.33645 10.0832
C -3.08102 7.11527 10.7756
Si -3.08102 7.11527 12.8796
C -3.081 5.33645 13.5787
Si -3.081 5.33645 15.1232
C -1.54048 6.22585 15.8156
Si -1.54048 6.22585 17.9196
C -3.081 5.33645 18.6187
Si -3.081 5.33645 20.1664
C -3.08102 7.11527 20.8588
Si -3.08102 7.11527 22.9628
C -3.081 5.33645 23.6619
Si -3.081 5.33645 25.2064
C -1.54048 6.22585 25.8988
Si -1.54048 6.22585 28.0028
C -3.081 5.33645 28.7019
Si -3.081 5.33645 30.2496
C -3.08102 7.11527 30.942
Si -3.08102 7.11527 33.046
C -3.081 5.33645 33.7451
Si -3.081 5.33645 35.2896
C -1.54048 6.22585 35.982
Si -1.54048 6.22585 38.086
C -3.081 5.33645 38.7851
Si -3.081 5.33645 40.3328
C -3.08102 7.11527 41.0252
Si -3.08102 7.11527 43.1292
C -3.081 5.33645 43.8283
Si -3.081 5.33645 45.3728
C -1.54048 6.22585 46.0652
Si -1.54048 6.22585 48.1692
C -3.081 5.33645 48.8683
Si -3.081 5.33645 50.416
C -3.08102 7.11527 51.1084
Si -3.08102 7.11527 53.2124
C -3.081 5.33645 53.9115
Si -3.081 5.33645 55.456
C -1.54048 6.22585 56.1484
Si -1.54048 6.22585 58.2524
C -3.081 5.33645 58.9515
Si -3.081 5.33645 60.4992
C -3.08102 7.11527 61.1916
Si -3.08102 7.11527 63.2956
C -3.081 5.33645 63.9947
Si -3.081 5.33645 65.5392
C -1.54048 6.22585 66.2316
Si -1.54048 6.22585 68.3356
C -3.081 5.33645 69.0347
Si -3.081 5.33645 70.5824
C -3.08102 7.11527 71.2748
Si -3.08102 7.11527 73.3788
C -3.081 5.33645 74.0779
Si -3.081 5.33645 75.6224
C -1.54048 6.22585 76.3148
Si -1.54048 6.22585 78.4188
C -3.081 5.33645 79.1179
Si -3.081 5.33645 80.6656
C -3.08102 7.11527 81.358
Si -3.08102 7.11527 83.462
C -3.081 5.33645 84.1611
Si -3.081 5.33645 85.7056
C -1.54048 6.22585 86.398
Si -1.54048 6.22585 88.502
C -3.081 5.33645 89.2011
Si -4.6215 8.00467 0
C -4.62152 9.7835 0.692413
Si -4.62152 9.7835 2.79637
C -4.6215 8.00467 3.49554
Si -4.6215 8.00467 5.03999
C -3.08098 8.89407 5.7324
Si -3.08098 8.89407 7.83636
C -4.6215 8.00467 8.53553
Si -4.6215 8.00467 10.0832
C -4.62152 9.7835 10.7756
Si -4.62152 9.7835 12.8796
C -4.6215 8.00467 13.5787
Si -4.6215 8.00467 15.1232
C -3.08098 8.89407 15.8156
Si -3.08098 8.89407 17.9196
C -4.6215 8.00467 18.6187
Si -4.6215 8.00467 20.1664
C -4.62152 9.7835 20.8588
Si -4.62152 9.7835 22.9628
C -4.6215 8.00467 23.6619
Si -4.6215 8.00467 25.2064
C -3.08098 8.89407 25.8988
Si -3.08098 8.89407 28.0028
C -4.6215 8.00467 28.7019
Si -4.6215 8.00467 30.2496
C -4.62152 9.7835 30.942
Si -4.62152 9.7835 33.046
C -4.6215 8.00467 33.7451
Si -4.6215 8.00467 35.2896
C -3.08098 8.89407 35.982
Si -3.08098 8.89407 38.086
C -4.6215 8.00467 38.7851
Si -4.6215 8.00467 40.3328
C -4.62152 9.7835 41.0252
Si -4.62152 9.7835 43.1292
C -4.6215 8.00467 43.8283
Si -4.6215 8.00467 45.3728
C -3.08098 8.89407 46.0652
Si -3.08098 8.89407 48.1692
C -4.6215 8.00467 48.8683
Si -4.6215 8.00467 50.416
C -4.62152 9.7835 51.1084
Si -4.62152 9.7835 53.2124
C -4.6215 8.00467 53.9115
Si -4.6215 8.00467 55.456
C -3.08098 8.89407 56.1484
Si -3.08098 8.89407 58.2524
C -4.6215 8.00467 58.9515
Si -4.6215 8.00467 60.4992
C -4.62152 9.7835 61.1916
Si -4.62152 9.7835 63.2956
C -4.6215 8.00467 63.9947
Si -4.6215 8.00467 65.5392
C -3.08098 8.89407 66.2316
Si -3.08098 8.89407 68.3356
C -4.6215 8.00467 69.0347
Si -4.6215 8.00467 70.5824
C -4.62152 9.7835 71.2748
Si -4.62152 9.7835 73.3788
C -4.6215 8.00467 74.0779
Si -4.6215 8.00467 75.6224
C -3.08098 8.89407 76.3148
Si -3.08098 8.89407 78.4188
C -4.6215 8.00467 79.1179
Si -4.6215 8.00467 80.6656
C -4.62152 9.7835 81.358
Si -4.62152 9.7835 83.462
C -4.6215 8.00467 84.1611
Si -4.6215 8.00467 85.7056
C -3.08098 8.89407 86.398
Si -3.08098 8.89407 88.502
C -4.6215 8.00467 89.2011
Si -6.162 10.6729 0
C -6.16202 12.4517 0.692413
Si -6.16202 12.4517 2.79637
C -6.162 10.6729 3.49554
Si -6.162 10.6729 5.03999
C -4.62148 11.5623 5.7324
Si -4.62148 11.5623 7.83636
C -6.162 10.6729 8.53553
Si -6.162 10.6729 10.0832
C -6.16202 12.4517 10.7756
Si -6.16202 12.4517 12.8796
C -6.162 10.6729 13.5787
Si -6.162 10.6729 15.1232
C -4.62148 11.5623 15.8156
Si -4.62148 11.5623 17.9196
C -6.162 10.6729 18.6187
Si -6.162 10.6729 20.1664
C -6.16202 12.4517 20.8588
Si -6.16202 12.4517 22.9628
C -6.162 10.6729 23.6619
Si -6.162 10.6729 25.2064
C -4.62148 11.5623 25.8988
Si -4.62148 11.5623 28.0028
C -6.162 10.6729 28.7019
Si -6.162 10.6729 30.2496
C -6.16202 12.4517 30.942
Si -6.16202 12.4517 33.046
C -6.162 10.6729 33.7451
Si -6.162 10.6729 35.2896
C -4.62148 11.5623 35.982
Si -4.62148 11.5623 38.086
C -6.162 10.6729 38.7851
Si -6.162 10.6729 40.3328
C -6.16202 12.4517 41.0252
Si -6.16202 12.4517 43.1292
C -6.162 10.6729 43.8283
Si -6.162 10.6729 45.3728
C -4.62148 11.5623 46.0652
Si -4.62148 11.5623 48.1692
C -6.162 10.6729 48.8683
Si -6.162 10.6729 50.416
C -6.16202 12.4517 51.1084
Si -6.16202 12.4517 53.2124
C -6.162 10.6729 53.9115
Si -6.162 10.6729 55.456
C -4.62148 11.5623 56.1484
Si -4.62148 11.5623 58.2524
C -6.162 10.6729 58.9515
Si -6.162 10.6729 60.4992
C -6.16202 12.4517 61.1916
Si -6.16202 12.4517 63.2956
C -6.162 10.6729 63.9947
Si -6.162 10.6729 65.5392
C -4.62148 11.5623 66.2316
Si -4.62148 11.5623 68.3356
C -6.162 10.6729 69.0347
Si -6.162 10.6729 70.5824
C -6.16202 12.4517 71.2748
Si -6.16202 12.4517 73.3788
C -6.162 10.6729 74.0779
Si -6.162 10.6729 75.6224
C -4.62148 11.5623 76.3148
Si -4.62148 11.5623 78.4188
C -6.162 10.6729 79.1179
Si -6.162 10.6729 80.6656
C -6.16202 12.4517 81.358
Si -6.16202 12.4517 83.462
C -6.162 10.6729 84.1611
Si -6.162 10.6729 85.7056
C -4.62148 11.5623 86.398
Si -4.62148 11.5623 88.502
C -6.162 10.6729 89.2011
Si -7.7025 13.3411 0
C -7.70252 15.1199 0.692413
Si -7.70252 15.1199 2.79637
C -7.7025 13.3411 3.49554
Si -7.7025 13.3411 5.03999
C -6.16198 14.2305 5.7324
Si -6.16198 14.2305 7.83636
C -7.7025 13.3411 8.53553
Si -7.7025 13.3411 10.0832
C -7.70252 15.1199 10.7756
Si -7.70252 15.1199 12.8796
C -7.7025 13.3411 13.5787
Si -7.7025 13.3411 15.1232
C -6.16198 14.2305 15.8156
Si -6.16198 14.2305 17.9196
C -7.7025 13.3411 18.6187
Si -7.7025 13.3411 20.1664
C -7.70252 15.1199 20.8588
Si -7.70252 15.1199 22.9628
C -7.7025 13.3411 23.6619
Si -7.7025 13.3411 25.2064
C -6.16198 14.2305 25.8988
Si -6.16198 14.2305 28.0028
C -7.7025 13.3411 28.7019
Si -7.7025 13.3411 30.2496
C -7.70252 15.1199 30.942
Si -7.70252 15.1199 33.046
C -7.7025 13.3411 33.7451
Si -7.7025 13.3411 35.2896
C -6.16198 14.2305 35.982
Si -6.16198 14.2305 38.086
C -7.7025 13.3411 38.7851
Si -7.7025 13.3411 40.3328
C -7.70252 15.1199 41.0252
Si -7.70252 15.1199 43.1292
C -7.7025 13.3411 43.8283
Si -7.7025 13.3411 45.3728
C -6.16198 14.2305 46.0652
Si -6.16198 14.2305 48.1692
C -7.7025 13.3411 48.8683
Si -7.7025 13.3411 50.416
C -7.70252 15.1199 51.1084
Si -7.70252 15.1199 53.2124
C -7.7025 13.3411 53.9115
Si -7.7025 13.3411 55.456
C -6.16198 14.2305 56.1484
Si -6.16198 14.2305 58.2524
C -7.7025 13.3411 58.9515
Si -7.7025 13.3411 60.4992
C -7.70252 15.1199 61.1916
Si -7.70252 15.1199 63.2956
C -7.7025 13.3411 63.9947
Si -7.7025 13.3411 65.5392
C -6.16198 14.2305 66.2316
Si -6.16198 14.2305 68.3356
C -7.7025 13.3411 69.0347
Si -7.7025 13.3411 70.5824
C -7.70252 15.1199 71.2748
Si -7.70252 15.1199 73.3788
C -7.7025 13.3411 74.0779
Si -7.7025 13.3411 75.6224
C -6.16198 14.2305 76.3148
Si -6.16198 14.2305 78.4188
C -7.7025 13.3411 79.1179
Si -7.7025 13.3411 80.6656
C -7.70252 15.1199 81.358
Si -7.70252 15.1199 83.462
C -7.7025 13.3411 84.1611
Si -7.7025 13.3411 85.7056
C -6.16198 14.2305 86.398
Si -6.16198 14.2305 88.502
C -7.7025 13.3411 89.2011
Si -9.243 16.0093 0
C -9.24302 17.7882 0.692413
Si -9.24302 17.7882 2.79637
C -9.243 16.0093 3.49554
Si -9.243 16.0093 5.03999
C -7.70248 16.8987 5.7324
Si -7.70248 16.8987 7.83636
C -9.243 16.0093 8.53553
Si -9.243 16.0093 10.0832
C -9.24302 17.7882 10.7756
Si -9.24302 17.7882 12.8796
C -9.243 16.0093 13.5787
Si -9.243 16.0093 15.1232
C -7.70248 16.8987 15.8156
Si -7.70248 16.8987 17.9196
C -9.243 16.0093 18.6187
Si -9.243 16.0093 20.1664
C -9.24302 17.7882 20.8588
Si -9.24302 17.7882 22.9628
C -9.243 16.0093 23.6619
Si -9.243 16.0093 25.2064
C -7.70248 16.8987 25.8988
Si -7.70248 16.8987 28.0028
C -9.243 16.0093 28.7019
Si -9.243 16.0093 30.2496
C -9.24302 17.7882 30.942
Si -9.24302 17.7882 33.046
C -9.243 16.0093 33.7451
Si -9.243 16.0093 35.2896
C -7.70248 16.8987 35.982
Si -7.70248 16.8987 38.086
C -9.243 16.0093 38.7851
Si -9.243 16.0093 40.3328
C -9.24302 17.7882 41.0252
Si -9.24302 17.7882 43.1292
C -9.243 16.0093 43.8283
Si -9.243 16.0093 45.3728
C -7.70248 16.8987 46.0652
Si -7.70248 16.8987 48.1692
C -9.243 16.0093 48.8683
Si -9.243 16.0093 50.416
C -9.24302 17.7882 51.1084
Si -9.24302 17.7882 53.2124
C -9.243 16.0093 53.9115
Si -9.243 16.0093 55.456
C -7.70248 16.8987 56.1484
Si -7.70248 16.8987 58.2524
C -9.243 16.0093 58.9515
Si -9.243 16.0093 60.4992
C -9.24302 17.7882 61.1916
Si -9.24302 17.7882 63.2956
C -9.243 16.0093 63.9947
Si -9.243 16.0093 65.5392
C -7.70248 16.8987 66.2316
Si -7.70248 16.8987 68.3356
C -9.243 16.0093 69.0347
Si -9.243 16.0093 70.5824
C -9.24302 17.7882 71.2748
Si -9.24302 17.7882 73.3788
C -9.243 16.0093 74.0779
Si -9.243 16.0093 75.6224
C -7.70248 16.8987 76.3148
Si -7.70248 16.8987 78.4188
C -9.243 16.0093 79.1179
Si -9.243 16.0093 80.6656
C -9.24302 17.7882 81.358
Si -9.24302 17.7882 83.462
C -9.243 16.0093 84.1611
Si -9.243 16.0093 85.7056
C -7.70248 16.8987 86.398
Si -7.70248 16.8987 88.502
C -9.243 16.0093 89.2011
Si -10.7835 18.6776 0
C -10.7835 20.4564 0.692413
Si -10.7835 20.4564 2.79637
C -10.7835 18.6776 3.49554
Si -10.7835 18.6776 5.03999
C -9.24298 19.567 5.7324
Si -9.24298 19.567 7.83636
C -10.7835 18.6776 8.53553
Si -10.7835 18.6776 10.0832
C -10.7835 20.4564 10.7756
Si -10.7835 20.4564 12.8796
C -10.7835 18.6776 13.5787
Si -10.7835 18.6776 15.1232
C -9.24298 19.567 15.8156
Si -9.24298 19.567 17.9196
C -10.7835 18.6776 18.6187
Si -10.7835 18.6776 20.1664
C -10.7835 20.4564 20.8588
Si -10.7835 20.4564 22.9628
C -10.7835 18.6776 23.6619
Si -10.7835 18.6776 25.2064
C -9.24298 19.567 25.8988
Si -9.24298 19.567 28.0028
C -10.7835 18.6776 28.7019
Si -10.7835 18.6776 30.2496
C -10.7835 20.4564 30.942
Si -10.7835 20.4564 33.046
C -10.7835 18.6776 33.7451
Si -10.7835 18.6776 35.2896
C -9.24298 19.567 35.982
Si -9.24298 19.567 38.086
C -10.7835 18.6776 38.7851
Si -10.7835 18.6776 40.3328
C -10.7835 20.4564 41.0252
Si -10.7835 20.4564 43.1292
C -10.7835 18.6776 43.8283
Si -10.7835 18.6776 45.3728
C -9.24298 19.567 46.0652
Si -9.24298 19.567 48.1692
C -10.7835 18.6776 48.8683
Si -10.7835 18.6776 50.416
C -10.7835 20.4564 51.1084
Si -10.7835 20.4564 53.2124
C -10.7835 18.6776 53.9115
Si -10.7835 18.6776 55.456
C -9.24298 19.567 56.1484
Si -9.24298 19.567 58.2524
C -10.7835 18.6776 58.9515
Si -10.7835 18.6776 60.4992
C -10.7835 20.4564 61.1916
Si -10.7835 20.4564 63.2956
C -10.7835 18.6776 63.9947
Si -10.7835 18.6776 65.5392
C -9.24298 19.567 66.2316
Si -9.24298 19.567 68.3356
C -10.7835 18.6776 69.0347
Si -10.7835 18.6776 70.5824
C -10.7835 20.4564 71.2748
Si -10.7835 20.4564 73.3788
C -10.7835 18.6776 74.0779
Si -10.7835 18.6776 75.6224
C -9.24298 19.567 76.3148
Si -9.24298 19.567 78.4188
C -10.7835 18.6776 79.1179
Si -10.7835 18.6776 80.6656
C -10.7835 20.4564 81.358
Si -10.7835 20.4564 83.462
C -10.7835 18.6776 84.1611
Si -10.7835 18.6776 85.7056
C -9.24298 19.567 86.398
Si -9.24298 19.567 88.502
C -10.7835 18.6776 89.2011
Si -12.324 21.3458 0
C -12.324 23.1246 0.692413
Si -12.324 23.1246 2.79637
C -12.324 21.3458 3.49554
Si -12.324 21.3458 5.03999
C -10.7835 22.2352 5.7324
Si -10.7835 22.2352 7.83636
C -12.324 21.3458 8.53553
Si -12.324 21.3458 10.0832
C -12.324 23.1246 10.7756
Si -12.324 23.1246 12.8796
C -12.324 21.3458 13.5787
Si -12.324 21.3458 15.1232
C -10.7835 22.2352 15.8156
Si -10.7835 22.2352 17.9196
C -12.324 21.3458 18.6187
Si -12.324 21.3458 20.1664
C -12.324 23.1246 20.8588
Si -12.324 23.1246 22.9628
C -12.324 21.3458 23.6619
Si -12.324 21.3458 25.2064
C -10.7835 22.2352 25.8988
Si -10.7835 22.2352 28.0028
C -12.324 21.3458 28.7019
Si -12.324 21.3458 30.2496
C -12.324 23.1246 30.942
Si -12.324 23.1246 33.046
C -12.324 21.3458 33.7451
Si -12.324 21.3458 35.2896
C -10.7835 22.2352 35.982
Si -10.7835 22.2352 38.086
C -12.324 21.3458 38.7851
Si -12.324 21.3458 40.3328
C -12.324 23.1246 41.0252
Si -12.324 23.1246 43.1292
C -12.324 21.3458 43.8283
Si -12.324 21.3458 45.3728
C -10.7835 22.2352 46.0652
Si -10.7835 22.2352 48.1692
C -12.324 21.3458 48.8683
Si -12.324 21.3458 50.416
C -12.324 23.1246 51.1084
Si -12.324 23.1246 53.2124
C -12.324 21.3458 53.9115
Si -12.324 21.3458 55.456
C -10.7835 22.2352 56.1484
Si -10.7835 22.2352 58.2524
C -12.324 21.3458 58.9515
Si -12.324 21.3458 60.4992
C -12.324 23.1246 61.1916
Si -12.324 23.1246 63.2956
C -12.324 21.3458 63.9947
Si -12.324 21.3458 65.5392
C -10.7835 22.2352 66.2316
Si -10.7835 22.2352 68.3356
C -12.324 21.3458 69.0347
Si -12.324 21.3458 70.5824
C -12.324 23.1246 71.2748
Si -12.324 23.1246 73.3788
C -12.324 21.3458 74.0779
Si -12.324 21.3458 75.6224
C -10.7835 22.2352 76.3148
Si -10.7835 22.2352 78.4188
C -12.324 21.3458 79.1179
Si -12.324 21.3458 80.6656
C -12.324 23.1246 81.358
Si -12.324 23.1246 83.462
C -12.324 21.3458 84.1611
Si -12.324 21.3458 85.7056
C -10.7835 22.2352 86.398
Si -10.7835 22.2352 88.502
C -12.324 21.3458 89.2011
Si -13.8645 24.014 0
C -13.8645 25.7928 0.692413
Si -13.8645 25.7928 2.79637
C -13.8645 24.014 3.49554
Si -13.8645 24.014 5.03999
C -12.324 24.9034 5.7324
Si -12.324 24.9034 7.83636
C -13.8645 24.014 8.53553
Si -13.8645 24.014 10.0832
C -13.8645 25.7928 10.7756
Si -13.8645 25.7928 12.8796
C -13.8645 24.014 13.5787
Si -13.8645 24.014 15.1232
C -12.324 24.9034 15.8156
Si -12.324 24.9034 17.9196
C -13.8645 24.014 18.6187
Si -13.8645 24.014 20.1664
C -13.8645 25.7928 20.8588
Si -13.8645 25.7928 22.9628
C -13.8645 24.014 23.6619
Si -13.8645 24.014 25.2064
C -12.324 24.9034 25.8988
Si -12.324 24.9034 28.0028
C -13.8645 24.014 28.7019
Si -13.8645 24.014 30.2496
C -13.8645 25.7928 30.942
Si -13.8645 25.7928 33.046
C -13.8645 24.014 33.7451
Si -13.8645 24.014 35.2896
C -12.324 24.9034 35.982
Si -12.324 24.9034 38.086
C -13.8645 24.014 38.7851
Si -13.8645 24.014 40.3328
C -13.8645 25.7928 41.0252
Si -13.8645 25.7928 43.1292
C -13.8645 24.014 43.8283
Si -13.8645 24.014 45.3728
C -12.324 24.9034 46.0652
Si -12.324 24.9034 48.1692
C -13.8645 24.014 48.8683
Si -13.8645 24.014 50.416
C -13.8645 25.7928 51.1084
Si -13.8645 25.7928 53.2124
C -13.8645 24.014 53.9115
Si -13.8645 24.014 55.456
C -12.324 24.9034 56.1484
Si -12.324 24.9034 58.2524
C -13.8645 24.014 58.9515
Si -13.8645 24.014 60.4992
C -13.8645 25.7928 61.1916
Si -13.8645 25.7928 63.2956
C -13.8645 24.014 63.9947
Si -13.8645 24.014 65.5392
C -12.324 24.9034 66.2316
Si -12.324 24.9034 68.3356
C -13.8645 24.014 69.0347
Si -13.8645 24.014 70.5824
C -13.8645 25.7928 71.2748
Si -13.8645 25.7928 73.3788
C -13.8645 24.014 74.0779
Si -13.8645 24.014 75.6224
C -12.324 24.9034 76.3148
Si -12.324 24.9034 78.4188
C -13.8645 24.014 79.1179
Si -13.8645 24.014 80.6656
C -13.8645 25.7928 81.358
Si -13.8645 25.7928 83.462
C -13.8645 24.014 84.1611
Si -13.8645 24.014 85.7056
C -12.324 24.9034 86.398
Si -12.324 24.9034 88.502
C -13.8645 24.014 89.2011
Si 3.081 0 0
C 3.08098 1.77883 0.692413
Si 3.08098 1.77883 2.79637
C 3.081 -6.27445e-13 3.49554
Si 3.081 -9.04671e-13 5.03999
C 4.62152 0.889399 5.7324
Si 4.62152 0.889399 7.83636
C 3.081 -1.53212e-12 8.53553
Si 3.081 -1.80992e-12 10.0832
C 3.08098 1.77883 10.7756
Si 3.08098 1.77883 12.8796
C 3.081 -2.43737e-12 13.5787
Si 3.081 -2.71459e-12 15.1232
C 4.62152 0.889399 15.8156
Si 4.62152 0.889399 17.9196
C 3.081 -3.34204e-12 18.6187
Si 3.081 -3.61984e-12 20.1664
C 3.08098 1.77883 20.8588
Si 3.08098 1.77883 22.9628
C 3.081 -4.24729e-12 23.6619
Si 3.081 -4.52451e-12 25.2064
C 4.62152 0.889399 25.8988
Si 4.62152 0.889399 28.0028
C 3.081 -5.15196e-12 28.7019
Si 3.081 -5.42976e-12 30.2496
C 3.08098 1.77883 30.942
Si 3.08098 1.77883 33.046
C 3.081 -6.05721e-12 33.7451
Si 3.081 -6.33443e-12 35.2896
C 4.62152 0.889399 35.982
Si 4.62152 0.889399 38.086
C 3.081 -6.96188e-12 38.7851
Si 3.081 -7.23968e-12 40.3328
C 3.08098 1.77883 41.0252
Si 3.08098 1.77883 43.1292
C 3.081 -7.86713e-12 43.8283
Si 3.081 -8.14435e-12 45.3728
C 4.62152 0.889399 46.0652
Si 4.62152 0.889399 48.1692
C 3.081 -8.7718e-12 48.8683
Si 3.081 -9.0496e-12 50.416
C 3.08098 1.77883 51.1084
Si 3.08098 1.77883 53.2124
C 3.081 -9.67705e-12 53.9115
Si 3.081 -9.95428e-12 55.456
C 4.62152 0.889399 56.1484
Si 4.62152 0.889399 58.2524
C 3.081 -1.05817e-11 58.9515
Si 3.081 -1.08595e-11 60.4992
C 3.08098 1.77883 61.1916
Si 3.08098 1.77883 63.2956
C 3.081 -1.1487e-11 63.9947
Si 3.081 -1.17642e-11 65.5392
C 4.62152 0.889399 66.2316
Si 4.62152 0.889399 68.3356
C 3.081 -1.23916e-11 69.0347
Si 3.081 -1.26694e-11 70.5824
C 3.08098 1.77883 71.2748
Si 3.08098 1.77883 73.3788
C 3.081 -1.32969e-11 74.0779
Si 3.081 -1.35741e-11 75.6224
C 4.62152 0.889399 76.3148
Si 4.62152 0.889399 78.4188
C 3.081 -1.42016e-11 79.1179
Si 3.081 -1.44794e-11 80.6656
C 3.08098 1.77883 81.358
Si 3.08098 1.77883 83.462
C 3.081 -1.51068e-11 84.1611
Si 3.081 -1.5384e-11 85.7056
C 4.62152 0.889399 86.398
Si 4.62152 0.889399 88.502
C 3.081 -1.60115e-11 89.2011
Si 1.5405 2.66822 0
C 1.54048 4.44705 0.692413
Si 1.54048 4.44705 2.79637
C 1.5405 2.66822 3.49554
Si 1.5405 2.66822 5.03999
C 3.08102 3.55762 5.7324
Si 3.08102 3.55762 7.83636
C 1.5405 2.66822 8.53553
Si 1.5405 2.66822 10.0832
C 1.54048 4.44705 10.7756
Si 1.54048 4.44705 12.8796
C 1.5405 2.66822 13.5787
Si 1.5405 2.66822 15.1232
C 3.08102 3.55762 15.8156
Si 3.08102 3.55762 17.9196
C 1.5405 2.66822 18.6187
Si 1.5405 2.66822 20.1664
C 1.54048 4.44705 20.8588
Si 1.54048 4.44705 22.9628
C 1.5405 2.66822 23.6619
Si 1.5405 2.66822 25.2064
C 3.08102 3.55762 25.8988
Si 3.08102 3.55762 28.0028
C 1.5405 2.66822 28.7019
Si 1.5405 2.66822 30.2496
C 1.54048 4.44705 30.942
Si 1.54048 4.44705 33.046
C 1.5405 2.66822 33.7451
Si 1.5405 2.66822 35.2896
C 3.08102 3.55762 35.982
Si 3.08102 3.55762 38.086
C 1.5405 2.66822 38.7851
Si 1.5405 2.66822 40.3328
C 1.54048 4.44705 41.0252
Si 1.54048 4.44705 43.1292
C 1.5405 2.66822 43.8283
Si 1.5405 2.66822 45.3728
C 3.08102 3.55762 46.0652
Si 3.08102 3.55762 48.1692
C 1.5405 2.66822 48.8683
Si 1.5405 2.66822 50.416
C 1.54048 4.44705 51.1084
Si 1.54048 4.44705 53.2124
C 1.5405 2.66822 53.9115
Si 1.5405 2.66822 55.456
C 3.08102 3.55762 56.1484
Si 3.08102 3.55762 58.2524
C 1.5405 2.66822 58.9515
Si 1.5405 2.66822 60.4992
C 1.54048 4.44705 61.1916
Si 1.54048 4.44705 63.2956
C 1.5405 2.66822 63.9947
Si 1.5405 2.66822 65.5392
C 3.08102 3.55762 66.2316
Si 3.08102 3.55762 68.3356
C 1.5405 2.66822 69.0347
Si 1.5405 2.66822 70.5824
C 1.54048 4.44705 71.2748
Si 1.54048 4.44705 73.3788
C 1.5405 2.66822 74.0779
Si 1.5405 2.66822 75.6224
C 3.08102 3.55762 76.3148
Si 3.08102 3.55762 78.4188
C 1.5405 2.66822 79.1179
Si 1.5405 2.66822 80.6656
C 1.54048 4.44705 81.358
Si 1.54048 4.44705 83.462
C 1.5405 2.66822 84.1611
Si 1.5405 2.66822 85.7056
C 3.08102 3.55762 86.398
Si 3.08102 3.55762 88.502
C 1.5405 2.66822 89.2011
Si -7.363e-13 5.33645 0
C -1.5405e-05 7.11527 0.692413
Si -1.5405e-05 7.11527 2.79637
C -1.09856e-12 5.33645 3.49554
Si -1.25861e-12 5.33645 5.03999
C 1.54052 6.22585 5.7324
Si 1.54052 6.22585 7.83636
C -1.62087e-12 5.33645 8.53553
Si -1.78126e-12 5.33645 10.0832
C -1.5405e-05 7.11527 10.7756
Si -1.5405e-05 7.11527 12.8796
C -2.14351e-12 5.33645 13.5787
Si -2.30357e-12 5.33645 15.1232
C 1.54052 6.22585 15.8156
Si 1.54052 6.22585 17.9196
C -2.66583e-12 5.33645 18.6187
Si -2.82622e-12 5.33645 20.1664
C -1.5405e-05 7.11527 20.8588
Si -1.5405e-05 7.11527 22.9628
C -3.18847e-12 5.33645 23.6619
Si -3.34853e-12 5.33645 25.2064
C 1.54052 6.22585 25.8988
Si 1.54052 6.22585 28.0028
C -3.71078e-12 5.33645 28.7019
Si -3.87117e-12 5.33645 30.2496
C -1.5405e-05 7.11527 30.942
Si -1.5405e-05 7.11527 33.046
C -4.23343e-12 5.33645 33.7451
Si -4.39349e-12 5.33645 35.2896
C 1.54052 6.22585 35.982
Si 1.54052 6.22585 38.086
C -4.75574e-12 5.33645 38.7851
Si -4.91613e-12 5.33645 40.3328
C -1.5405e-05 7.11527 41.0252
Si -1.5405e-05 7.11527 43.1292
C -5.27839e-12 5.33645 43.8283
Si -5.43845e-12 5.33645 45.3728
C 1.54052 6.22585 46.0652
Si 1.54052 6.22585 48.1692
C -5.8007e-12 5.33645 48.8683
Si -5.96109e-12 5.33645 50.416
C -1.5405e-05 7.11527 51.1084
Si -1.5405e-05 7.11527 53.2124
C -6.32335e-12 5.33645 53.9115
Si -6.4834e-12 5.33645 55.456
C 1.54052 6.22585 56.1484
Si 1.54052 6.22585 58.2524
C -6.84566e-12 5.33645 58.9515
Si -7.00605e-12 5.33645 60.4992
C -1.5405e-05 7.11527 61.1916
Si -1.5405e-05 7.11527 63.2956
C -7.36831e-12 5.33645 63.9947
Si -7.52836e-12 5.33645 65.5392
C 1.54052 6.22585 66.2316
Si 1.54052 6.22585 68.3356
C -7.89062e-12 5.33645 69.0347
Si -8.05101e-12 5.33645 70.5824
C -1.5405e-05 7.11527 71.2748
Si -1.5405e-05 7.11527 73.3788
C -8.41326e-12 5.33645 74.0779
Si -8.57332e-12 5.33645 75.6224
C 1.54052 6.22585 76.3148
Si 1.54052 6.22585 78.4188
C -8.93558e-12 5.33645 79.1179
Si -9.09597e-12 5.33645 80.6656
C -1.5405e-05 7.11527 81.358
Si -1.5405e-05 7.11527 83.462
C -9.45822e-12 5.33645 84.1611
Si -9.61828e-12 5.33645 85.7056
C 1.54052 6.22585 86.398
Si 1.54052 6.22585 88.502
C -9.98053e-12 5.33645 89.2011
Si -1.5405 8.00467 0
C -1.54052 9.7835 0.692413
Si -1.54052 9.7835 2.79637
C -1.5405 8.00467 3.49554
Si -1.5405 8.00467 5.03999
C 1.5405e-05 8.89407 5.7324
Si 1.5405e-05 8.89407 7.83636
C -1.5405 8.00467 8.53553
Si -1.5405 8.00467 10.0832
C -1.54052 9.7835 10.7756
Si -1.54052 9.7835 12.8796
C -1.5405 8.00467 13.5787
Si -1.5405 8.00467 15.1232
C 1.5405e-05 8.89407 15.8156
Si 1.5405e-05 8.89407 17.9196
C -1.5405 8.00467 18.6187
Si -1.5405 8.00467 20.1664
C -1.54052 9.7835 20.8588
Si -1.54052 9.7835 22.9628
C -1.5405 8.00467 23.6619
Si -1.5405 8.00467 25.2064
C 1.5405e-05 8.89407 25.8988
Si 1.5405e-05 8.89407 28.0028
C -1.5405 8.00467 28.7019
Si -1.5405 8.00467 30.2496
C -1.54052 9.7835 30.942
Si -1.54052 9.7835 33.046
C -1.5405 8.00467 33.7451
Si -1.5405 8.00467 35.2896
C 1.5405e-05 8.89407 35.982
Si 1.5405e-05 8.89407 38.086
C -1.5405 8.00467 38.7851
Si -1.5405 8.00467 40.3328
C -1.54052 9.7835 41.0252
Si -1.54052 9.7835 43.1292
C -1.5405 8.00467 43.8283
Si -1.5405 8.00467 45.3728
C 1.5405e-05 8.89407 46.0652
Si 1.5405e-05 8.89407 48.1692
C -1.5405 8.00467 48.8683
Si -1.5405 8.00467 50.416
C -1.54052 9.7835 51.1084
Si -1.54052 9.7835 53.2124
C -1.5405 8.00467 53.9115
Si -1.5405 8.00467 55.456
C 1.5405e-05 8.89407 56.1484
Si 1.5405e-05 8.89407 58.2524
C -1.5405 8.00467 58.9515
Si -1.5405 8.00467 60.4992
C -1.54052 9.7835 61.1916
Si -1.54052 9.7835 63.2956
C -1.5405 8.00467 63.9947
Si -1.5405 8.00467 65.5392
C 1.5405e-05 8.89407 66.2316
Si 1.5405e-05 8.89407 68.3356
C -1.5405 8.00467 69.0347
Si -1.5405 8.00467 70.5824
C -1.54052 9.7835 71.2748
Si -1.54052 9.7835 73.3788
C -1.5405 8.00467 74.0779
Si -1.5405 8.00467 75.6224
C 1.5405e-05 8.89407 76.3148
Si 1.5405e-05 8.89407 78.4188
C -1.5405 8.00467 79.1179
Si -1.5405 8.00467 80.6656
C -1.54052 9.7835 81.358
Si -1.54052 9.7835 83.462
C -1.5405 8.00467 84.1611
Si -1.5405 8.00467 85.7056
C 1.5405e-05 8.89407 86.398
Si 1.5405e-05 8.89407 88.502
C -1.5405 8.00467 89.2011
Si -3.081 10.6729 0
C -3.08102 12.4517 0.692413
Si -3.08102 12.4517 2.79637
C -3.081 10.6729 3.49554
Si -3.081 10.6729 5.03999
C -1.54048 11.5623 5.7324
Si -1.54048 11.5623 7.83636
C -3.081 10.6729 8.53553
Si -3.081 10.6729 10.0832
C -3.08102 12.4517 10.7756
Si -3.08102 12.4517 12.8796
C -3.081 10.6729 13.5787
Si -3.081 10.6729 15.1232
C -1.54048 11.5623 15.8156
Si -1.54048 11.5623 17.9196
C -3.081 10.6729 18.6187
Si -3.081 10.6729 20.1664
C -3.08102 12.4517 20.8588
Si -3.08102 12.4517 22.9628
C -3.081 10.6729 23.6619
Si -3.081 10.6729 25.2064
C -1.54048 11.5623 25.8988
Si -1.54048 11.5623 28.0028
C -3.081 10.6729 28.7019
Si -3.081 10.6729 30.2496
C -3.08102 12.4517 30.942
Si -3.08102 12.4517 33.046
C -3.081 10.6729 33.7451
Si -3.081 10.6729 35.2896
C -1.54048 11.5623 35.982
Si -1.54048 11.5623 38.086
C -3.081 10.6729 38.7851
Si -3.081 10.6729 40.3328
C -3.08102 12.4517 41.0252
Si -3.08102 12.4517 43.1292
C -3.081 10.6729 43.8283
Si -3.081 10.6729 45.3728
C -1.54048 11.5623 46.0652
Si -1.54048 11.5623 48.1692
C -3.081 10.6729 48.8683
Si -3.081 10.6729 50.416
C -3.08102 12.4517 51.1084
Si -3.08102 12.4517 53.2124
C -3.081 10.6729 53.9115
Si -3.081 10.6729 55.456
C -1.54048 11.5623 56.1484
Si -1.54048 11.5623 58.2524
C -3.081 10.6729 58.9515
Si -3.081 10.6729 60.4992
C -3.08102 12.4517 61.1916
Si -3.08102 12.4517 63.2956
C -3.081 10.6729 63.9947
Si -3.081 10.6729 65.5392
C -1.54048 11.5623 66.2316
Si -1.54048 11.5623 68.3356
C -3.081 10.6729 69.0347
Si -3.081 10.6729 70.5824
C -3.08102 12.4517 71.2748
Si -3.08102 12.4517 73.3788
C -3.081 10.6729 74.0779
Si -3.081 10.6729 75.6224
C -1.54048 11.5623 76.3148
Si -1.54048 11.5623 78.4188
C -3.081 10.6729 79.1179
Si -3.081 10.6729 80.6656
C -3.08102 12.4517 81.358
Si -3.08102 12.4517 83.462
C -3.081 10.6729 84.1611
Si -3.081 10.6729 85.7056
C -1.54048 11.5623 86.398
Si -1.54048 11.5623 88.502
C -3.081 10.6729 89.2011
Si -4.6215 13.3411 0
C -4.62152 15.1199 0.692413
Si -4.62152 15.1199 2.79637
C -4.6215 13.3411 3.49554
Si -4.6215 13.3411 5.03999
C -3.08098 14.2305 5.7324
Si -3.08098 14.2305 7.83636
C -4.6215 13.3411 8.53553
Si -4.6215 13.3411 10.0832
C -4.62152 15.1199 10.7756
Si -4.62152 15.1199 12.8796
C -4.6215 13.3411 13.5787
Si -4.6215 13.3411 15.1232
C -3.08098 14.2305 15.8156
Si -3.08098 14.2305 17.9196
C -4.6215 13.3411 18.6187
Si -4.6215 13.3411 20.1664
C -4.62152 15.1199 20.8588
Si -4.62152 15.1199 22.9628
C -4.6215 13.3411 23.6619
Si -4.6215 13.3411 25.2064