# LAMMPS data file written by Ovito Basic 3.0.0-dev791
282 atoms
5 atom types
0.0 16.9909992218 xlo xhi
0.0 16.9909992218 ylo yhi
0.0 16.9909992218 zlo zhi

Atoms  # charge

1 1 0.0 6.40645647 0.134228885 10.584543228
2 1 0.0 6.261353493 15.277287483 11.681311607
3 1 0.0 6.900044918 1.452730417 10.090954781
4 1 0.0 0.134228885 10.584543228 6.40645647
5 1 0.0 15.277287483 10.729645729 5.309687138
6 1 0.0 1.452730417 10.090954781 6.900044918
7 1 0.0 10.584543228 16.856769562 10.584543228
8 1 0.0 10.729645729 1.713712215 11.681311607
9 1 0.0 10.090954781 15.538269043 10.090954781
10 1 0.0 16.856769562 6.40645647 6.40645647
11 1 0.0 1.713712215 6.261353493 5.309687138
12 1 0.0 15.538269043 6.900044918 6.900044918
13 1 0.0 6.40645647 16.856769562 6.40645647
14 1 0.0 6.261353493 1.713712215 5.309687138
15 1 0.0 6.900044918 15.538269043 6.900044918
16 1 0.0 16.856769562 10.584543228 10.584543228
17 1 0.0 1.713712215 10.729645729 11.681311607
18 1 0.0 15.538269043 10.090954781 10.090954781
19 1 0.0 10.584543228 0.134228885 6.40645647
20 1 0.0 10.729645729 15.277287483 5.309687138
21 1 0.0 10.090954781 1.452730417 6.900044918
22 1 0.0 0.134228885 6.40645647 10.584543228
23 1 0.0 15.277287483 6.261353493 11.681311607
24 1 0.0 1.452730417 6.900044918 10.090954781
25 1 0.0 10.584543228 6.40645647 0.134228885
26 1 0.0 11.681311607 6.261353493 15.277287483
27 1 0.0 10.090954781 6.900044918 1.452730417
28 1 0.0 6.40645647 6.40645647 16.856769562
29 1 0.0 6.261353493 5.309687138 1.713712215
30 1 0.0 6.900044918 6.900044918 15.538269043
31 1 0.0 6.40645647 10.584543228 0.134228885
32 1 0.0 5.309687138 10.729645729 15.277287483
33 1 0.0 6.900044918 10.090954781 1.452730417
34 1 0.0 10.584543228 10.584543228 16.856769562
35 1 0.0 10.729645729 11.681311607 1.713712215
36 1 0.0 10.090954781 10.090954781 15.538269043
37 1 0.0 11.681311607 10.729645729 1.713712215
38 1 0.0 10.729645729 5.309687138 15.277287483
39 1 0.0 5.309687138 6.261353493 1.713712215
40 1 0.0 6.261353493 11.681311607 15.277287483
41 1 0.0 15.277287483 11.681311607 6.261353493
42 1 0.0 15.277287483 5.309687138 10.729645729
43 1 0.0 5.309687138 1.713712215 6.261353493
44 1 0.0 1.713712215 11.681311607 10.729645729
45 1 0.0 11.681311607 15.277287483 6.261353493
46 1 0.0 1.713712215 5.309687138 6.261353493
47 1 0.0 5.309687138 15.277287483 10.729645729
48 1 0.0 11.681311607 1.713712215 10.729645729
49 1 0.0 14.901955605 8.629728317 2.089043379
50 1 0.0 14.756853104 6.781787395 3.185812473
51 1 0.0 15.395544052 9.94822979 1.595454812
52 1 0.0 8.629728317 2.089043379 14.901955605
53 1 0.0 6.781787395 2.234146595 13.805187225
54 1 0.0 9.94822979 1.595454812 15.395544052
55 1 0.0 2.089043379 8.361270905 2.089043379
56 1 0.0 2.234146595 10.209211349 3.185812473
57 1 0.0 1.595454812 7.042768955 1.595454812
58 1 0.0 8.361270905 14.901955605 14.901955605
59 1 0.0 10.209211349 14.756853104 13.805187225
60 1 0.0 7.042768955 15.395544052 15.395544052
61 1 0.0 14.901955605 8.361270905 14.901955605
62 1 0.0 14.756853104 10.209211349 13.805187225
63 1 0.0 15.395544052 7.042768955 15.395544052
64 1 0.0 8.361270905 2.089043379 2.089043379
65 1 0.0 10.209211349 2.234146595 3.185812473
66 1 0.0 7.042768955 1.595454812 1.595454812
67 1 0.0 2.089043379 8.629728317 14.901955605
68 1 0.0 2.234146595 6.781787395 13.805187225
69 1 0.0 1.595454812 9.94822979 15.395544052
70 1 0.0 8.629728317 14.901955605 2.089043379
71 1 0.0 6.781787395 14.756853104 3.185812473
72 1 0.0 9.94822979 15.395544052 1.595454812
73 1 0.0 2.089043379 14.901955605 8.629728317
74 1 0.0 3.185812473 14.756853104 6.781787395
75 1 0.0 1.595454812 15.395544052 9.94822979
76 1 0.0 14.901955605 14.901955605 8.361270905
77 1 0.0 14.756853104 13.805187225 10.209211349
78 1 0.0 15.395544052 15.395544052 7.042768955
79 1 0.0 14.901955605 2.089043379 8.629728317
80 1 0.0 13.805187225 2.234146595 6.781787395
81 1 0.0 15.395544052 1.595454812 9.94822979
82 1 0.0 2.089043379 2.089043379 8.361270905
83 1 0.0 2.234146595 3.185812473 10.209211349
84 1 0.0 1.595454812 1.595454812 7.042768955
85 1 0.0 3.185812473 2.234146595 10.209211349
86 1 0.0 2.234146595 13.805187225 6.781787395
87 1 0.0 13.805187225 14.756853104 10.209211349
88 1 0.0 14.756853104 3.185812473 6.781787395
89 1 0.0 6.781787395 3.185812473 14.756853104
90 1 0.0 6.781787395 13.805187225 2.234146595
91 1 0.0 13.805187225 10.209211349 14.756853104
92 1 0.0 10.209211349 3.185812473 2.234146595
93 1 0.0 3.185812473 6.781787395 14.756853104
94 1 0.0 10.209211349 13.805187225 14.756853104
95 1 0.0 13.805187225 6.781787395 2.234146595
96 1 0.0 3.185812473 10.209211349 2.234146595
97 2 0.0 6.417500496 14.593569756 12.291288376
98 2 0.0 14.593569756 10.57349968 4.699710369
99 2 0.0 10.57349968 2.397430182 12.291288376
100 2 0.0 9.197227478 15.635117531 9.757930756
101 2 0.0 10.09605217 14.904504776 10.813071251
102 2 0.0 10.663551331 15.225634575 9.387527466
103 2 0.0 2.397430182 6.417500496 4.699710369
104 2 0.0 15.635117531 7.793771267 7.233068466
105 2 0.0 14.904504776 6.894947529 6.177927017
106 2 0.0 15.225634575 6.327447891 7.603471756
107 2 0.0 6.417500496 2.397430182 4.699710369
108 2 0.0 2.397430182 10.57349968 12.291288376
109 2 0.0 10.57349968 14.593569756 4.699710369
110 2 0.0 9.197227478 1.35588181 7.233068466
111 2 0.0 10.09605217 2.086494684 6.177927017
112 2 0.0 10.663551331 1.765364885 7.603471756
113 2 0.0 14.593569756 6.417500496 12.291288376
114 2 0.0 1.35588181 7.793771267 9.757930756
115 2 0.0 2.086494684 6.894947529 10.813071251
116 2 0.0 1.765364885 6.327447891 9.387527466
117 2 0.0 12.291288376 6.417500496 14.593569756
118 2 0.0 6.417500496 4.699710369 2.397430182
119 2 0.0 7.793771267 7.233068466 15.635117531
120 2 0.0 6.894947529 6.177927017 14.904504776
121 2 0.0 6.327447891 7.603471756 15.225634575
122 2 0.0 4.699710369 10.57349968 14.593569756
123 2 0.0 10.57349968 12.291288376 2.397430182
124 2 0.0 9.197227478 9.757930756 15.635117531
125 2 0.0 10.09605217 10.813071251 14.904504776
126 2 0.0 10.663551331 9.387527466 15.225634575
127 2 0.0 12.291288376 10.57349968 2.397430182
128 2 0.0 10.57349968 4.699710369 14.593569756
129 2 0.0 9.197227478 7.233068466 1.35588181
130 2 0.0 10.09605217 6.177927017 2.086494684
131 2 0.0 10.663551331 7.603471756 1.765364885
132 2 0.0 4.699710369 6.417500496 2.397430182
133 2 0.0 6.417500496 12.291288376 14.593569756
134 2 0.0 7.793771267 9.757930756 1.35588181
135 2 0.0 6.894947529 10.813071251 2.086494684
136 2 0.0 6.327447891 9.387527466 1.765364885
137 2 0.0 14.593569756 12.291288376 6.417500496
138 2 0.0 1.35588181 9.757930756 7.793771267
139 2 0.0 2.086494684 10.813071251 6.894947529
140 2 0.0 1.765364885 9.387527466 6.327447891
141 2 0.0 14.593569756 4.699710369 10.57349968
142 2 0.0 4.699710369 2.397430182 6.417500496
143 2 0.0 7.233068466 15.635117531 7.793771267
144 2 0.0 6.177927017 14.904504776 6.894947529
145 2 0.0 7.603471756 15.225634575 6.327447891
146 2 0.0 2.397430182 12.291288376 10.57349968
147 2 0.0 15.635117531 9.757930756 9.197227478
148 2 0.0 14.904504776 10.813071251 10.09605217
149 2 0.0 15.225634575 9.387527466 10.663551331
150 2 0.0 12.291288376 14.593569756 6.417500496
151 2 0.0 2.397430182 4.699710369 6.417500496
152 2 0.0 4.699710369 14.593569756 10.57349968
153 2 0.0 7.233068466 1.35588181 9.197227478
154 2 0.0 6.177927017 2.086494684 10.09605217
155 2 0.0 7.603471756 1.765364885 10.663551331
156 2 0.0 12.291288376 2.397430182 10.57349968
157 2 0.0 14.912999153 6.098069668 3.795789242
158 2 0.0 16.289270401 9.851381302 1.262431264
159 2 0.0 15.390446663 10.581994057 2.317572355
160 2 0.0 14.822947502 10.260864258 0.892027438
161 2 0.0 6.098069668 2.077999115 13.195210457
162 2 0.0 2.077999115 10.892929077 3.795789242
163 2 0.0 0.701728225 7.13961792 1.262431264
164 2 0.0 1.600552082 6.409005165 2.317572355
165 2 0.0 2.168051481 6.730134964 0.892027438
166 2 0.0 10.892929077 14.912999153 13.195210457
167 2 0.0 7.13961792 16.289270401 15.728568077
168 2 0.0 6.409005165 15.390446663 14.673427582
169 2 0.0 6.730134964 14.822947502 16.098972321
170 2 0.0 14.912999153 10.892929077 13.195210457
171 2 0.0 16.289270401 7.13961792 15.728568077
172 2 0.0 15.390446663 6.409005165 14.673427582
173 2 0.0 14.822947502 6.730134964 16.098972321
174 2 0.0 10.892929077 2.077999115 3.795789242
175 2 0.0 2.077999115 6.098069668 13.195210457
176 2 0.0 6.098069668 14.912999153 3.795789242
177 2 0.0 3.795789242 14.912999153 6.098069668
178 2 0.0 14.912999153 13.195210457 10.892929077
179 2 0.0 16.289270401 15.728568077 7.13961792
180 2 0.0 15.390446663 14.673427582 6.409005165
181 2 0.0 14.822947502 16.098972321 6.730134964
182 2 0.0 13.195210457 2.077999115 6.098069668
183 2 0.0 2.077999115 3.795789242 10.892929077
184 2 0.0 0.701728225 1.262431264 7.13961792
185 2 0.0 1.600552082 2.317572355 6.409005165
186 2 0.0 2.168051481 0.892027438 6.730134964
187 2 0.0 3.795789242 2.077999115 10.892929077
188 2 0.0 2.077999115 13.195210457 6.098069668
189 2 0.0 0.701728225 15.728568077 9.851381302
190 2 0.0 1.600552082 14.673427582 10.581994057
191 2 0.0 2.168051481 16.098972321 10.260864258
192 2 0.0 13.195210457 14.912999153 10.892929077
193 2 0.0 14.912999153 3.795789242 6.098069668
194 2 0.0 16.289270401 1.262431264 9.851381302
195 2 0.0 15.390446663 2.317572355 10.581994057
196 2 0.0 14.822947502 0.892027438 10.260864258
197 2 0.0 6.098069668 3.795789242 14.912999153
198 2 0.0 9.851381302 1.262431264 16.289270401
199 2 0.0 10.581994057 2.317572355 15.390446663
200 2 0.0 10.260864258 0.892027438 14.822947502
201 2 0.0 6.098069668 13.195210457 2.077999115
202 2 0.0 9.851381302 15.728568077 0.701728225
203 2 0.0 10.581994057 14.673427582 1.600552082
204 2 0.0 10.260864258 16.098972321 2.168051481
205 2 0.0 13.195210457 10.892929077 14.912999153
206 2 0.0 10.892929077 3.795789242 2.077999115
207 2 0.0 7.13961792 1.262431264 0.701728225
208 2 0.0 6.409005165 2.317572355 1.600552082
209 2 0.0 6.730134964 0.892027438 2.168051481
210 2 0.0 3.795789242 6.098069668 14.912999153
211 2 0.0 1.262431264 9.851381302 16.289270401
212 2 0.0 2.317572355 10.581994057 15.390446663
213 2 0.0 0.892027438 10.260864258 14.822947502
214 2 0.0 10.892929077 13.195210457 14.912999153
215 2 0.0 13.195210457 6.098069668 2.077999115
216 2 0.0 3.795789242 10.892929077 2.077999115
217 2 0.0 -1.29333 0.83192 -0.379824924
218 2 0.0 0.0 0.0 0.0
219 2 0.0 7.20217 9.32742 8.11567
220 2 0.0 8.4955 8.4955 8.4955
221 3 0.0 6.961721897 16.452724457 11.601115227
222 3 0.0 16.452724457 10.029276848 5.389884949
223 3 0.0 10.029276848 0.538274825 11.601115227
224 3 0.0 0.538274825 6.961721897 5.389884949
225 3 0.0 6.961721897 0.538274825 5.389884949
226 3 0.0 0.538274825 10.029276848 11.601115227
227 3 0.0 10.029276848 16.452724457 5.389884949
228 3 0.0 16.452724457 6.961721897 11.601115227
229 3 0.0 11.601115227 6.961721897 16.452724457
230 3 0.0 6.961721897 5.389884949 0.538274825
231 3 0.0 5.389884949 10.029276848 16.452724457
232 3 0.0 10.029276848 11.601115227 0.538274825
233 3 0.0 11.601115227 10.029276848 0.538274825
234 3 0.0 10.029276848 5.389884949 16.452724457
235 3 0.0 5.389884949 6.961721897 0.538274825
236 3 0.0 6.961721897 11.601115227 16.452724457
237 3 0.0 16.452724457 11.601115227 6.961721897
238 3 0.0 16.452724457 5.389884949 10.029276848
239 3 0.0 5.389884949 0.538274825 6.961721897
240 3 0.0 0.538274825 11.601115227 10.029276848
241 3 0.0 11.601115227 16.452724457 6.961721897
242 3 0.0 0.538274825 5.389884949 6.961721897
243 3 0.0 5.389884949 16.452724457 10.029276848
244 3 0.0 11.601115227 0.538274825 10.029276848
245 3 0.0 15.457221985 7.957224846 3.105614901
246 3 0.0 7.957224846 1.533777475 13.885383606
247 3 0.0 1.533777475 9.033774376 3.105614901
248 3 0.0 9.033774376 15.457221985 13.885383606
249 3 0.0 15.457221985 9.033774376 13.885383606
250 3 0.0 9.033774376 1.533777475 3.105614901
251 3 0.0 1.533777475 7.957224846 13.885383606
252 3 0.0 7.957224846 15.457221985 3.105614901
253 3 0.0 3.105614901 15.457221985 7.957224846
254 3 0.0 15.457221985 13.885383606 9.033774376
255 3 0.0 13.885383606 1.533777475 7.957224846
256 3 0.0 1.533777475 3.105614901 9.033774376
257 3 0.0 3.105614901 1.533777475 9.033774376
258 3 0.0 1.533777475 13.885383606 7.957224846
259 3 0.0 13.885383606 15.457221985 9.033774376
260 3 0.0 15.457221985 3.105614901 7.957224846
261 3 0.0 7.957224846 3.105614901 15.457221985
262 3 0.0 7.957224846 13.885383606 1.533777475
263 3 0.0 13.885383606 9.033774376 15.457221985
264 3 0.0 9.033774376 3.105614901 1.533777475
265 3 0.0 3.105614901 7.957224846 15.457221985
266 3 0.0 9.033774376 13.885383606 15.457221985
267 3 0.0 13.885383606 7.957224846 1.533777475
268 3 0.0 3.105614901 9.033774376 1.533777475
269 4 0.0 8.495499611 0.0 12.743249893
270 4 0.0 0.0 8.495499611 4.247749805
271 4 0.0 8.495499611 0.0 4.247749805
272 4 0.0 0.0 8.495499611 12.743249893
273 4 0.0 12.743249893 8.495499611 0.0
274 4 0.0 8.495499611 4.247749805 0.0
275 4 0.0 4.247749805 8.495499611 0.0
276 4 0.0 8.495499611 12.743249893 0.0
277 4 0.0 0.0 12.743249893 8.495499611
278 4 0.0 0.0 4.247749805 8.495499611
279 4 0.0 4.247749805 0.0 8.495499611
280 4 0.0 12.743249893 0.0 8.495499611
281 5 0.0 -0.97 0.0 0.0
282 5 0.0 7.5255 8.4955 8.4955
