# LAMMPS data file written by Ovito Basic 3.0.0-dev791
16 atoms
3 atom types
0.0 5.2301330566 xlo xhi
0.0 5.2301330566 ylo yhi
0.0 6.3267421722 zlo zhi

Atoms  # charge

1 1 0.0 3.588561773 1.641571283 1.581685543
2 1 0.0 0.973495126 0.973495126 3.163371086
3 1 0.0 1.641571283 3.588561773 4.745056629
4 1 0.0 4.25663805 4.25663805 0.0
5 2 0.0 4.306182861 4.306182861 3.163371086
6 2 0.0 3.539016485 1.691116571 4.745056629
7 2 0.0 1.691116571 3.539016485 1.581685543
8 2 0.0 0.923950076 0.923950076 0.0
9 3 0.0 1.521293998 1.768454432 1.438486099
10 3 0.0 0.846612096 4.136360645 3.020171642
11 3 0.0 4.136360645 0.846612096 3.306570768
12 3 0.0 4.383520603 1.093772531 6.183542728
13 3 0.0 1.093772531 4.383520603 0.143199474
14 3 0.0 3.461678743 3.70883894 1.724884987
15 3 0.0 1.768454432 1.521293998 4.888256073
16 3 0.0 3.70883894 3.461678743 4.601857185
