LAMMPS data file via write_data, version 22 Dec 2022, timestep = 4000

2104 atoms
3 atom types

0 24.3869 xlo xhi
0 21.1196749196 ylo yhi
0 89.8016 zlo zhi

Masses

1 52
2 55.84
3 16

Atoms # charge

22 2 0.01812691549887199 4.0644 2.3466 0.8298 0 0 0
27 2 0.03424690416938646 6.0966 3.52 0 0 0 0
32 2 0.01755094721504152 6.0966 3.52 2.4893 0 0 0
68 2 0.01459042905238722 0.0001 2.3466 0.8298 0 0 0
73 1 0.051624228886159 2.0323 3.52 0 0 0 0
78 2 0.01288033604321851 2.0323 3.52 2.4893 0 0 0
83 2 0.01768590602493638 4.0646 4.6932 1.6595 0 0 0
88 2 0.01930835471607854 3.8000285850352107 4.6047531232736185 4.141559081861125 0 0 0
93 2 0.01822746761103609 6.0967 5.8666 3.3191 0 0 0
130 1 0.03424242533794439 0 4.6932 1.6595 0 0 0
140 2 0.01915052104080314 2.0322 5.8666 3.3191 0 0 0
145 2 0.01511530898457276 2.077349309764475 5.832841604654747 5.566717462446244 0 0 0
348 2 0.03014118880773393 4.0646 0 0 0 0 0
353 1 0.03702161913597701 4.0646 0 2.4893 0 0 0
358 2 0.01139245553744513 6.0967 1.1734 1.6595 0 0 0
395 2 0.03290776152575979 0 0 0 0 0 0
400 1 0.03411676641684622 0 0 2.4893 0 0 0
405 2 0.01351492888658547 2.0322 1.1734 1.6595 0 0 0
410 2 0.01465318594409225 2.067667559797929 1.0945630569716414 4.121762594463844 0 0 0
415 2 0.01721700472641565 4.0644 2.3466 3.3191 0 0 0
420 2 0.01938321470494495 3.9820349351478996 2.2625942400052295 5.835517731327049 0 0 0
461 2 0.01357603605272208 0.0001 2.3466 3.3191 0 0 0
470 2 0.01973411546511582 1.8495398053557974 3.3569901826515816 4.7413062307691725 0 0 0
1681 2 0.02103060646278627 6.0967 5.8666 0.8298 0 0 0
1727 2 0.01347365482522764 2.0322 5.8666 0.8298 0 0 0
1732 2 0.03394521602356371 4.0644 7.0398 0 0 0 0
1737 2 0.01271033259012165 4.0644 7.0398 2.4893 0 0 0
1778 2 0.03245395448964392 0.0001 7.0398 0 0 0 0
1783 2 0.01357695693701001 0.0001 7.0398 2.4893 0 0 0
98 1 0.04057233246230839 6.031402295472873 5.719260288603131 5.7850703027248285 0 0 0
745 2 0.0177501574054767 4.094315173120495 21.024936024472577 5.051561593662886 0 -1 0
424 2 0.0159389186391222 5.861840865002053 3.4369008136863926 4.860044773068773 0 0 0
135 2 0.01272735616472709 0.04280727828984006 4.911617688768128 4.078658252982228 0 0 0
790 1 0.03656987255461557 24.330635863869734 21.04936041708542 4.759183202449698 -1 -1 0
363 2 0.01678520855940289 6.0358415092872555 1.2047189525517104 3.9247503322302952 0 0 0
37 2 0.01681369053940891 8.1289 4.6932 1.6595 0 0 0
42 2 0.0152383101358714 8.072721228922685 4.672317579465583 4.119455141637509 0 0 0
47 1 0.03365793249535685 10.1613 5.8666 3.3191 0 0 0
52 1 0.03560530493457177 10.069145382295986 5.9469203129705 5.632676167572178 0 0 0
306 2 0.01952144793339947 8.129 2.3466 0.8298 0 0 0
311 2 0.03538122798142306 10.1612 3.52 0 0 0 0
316 2 0.01393192594616888 10.1612 3.52 2.4893 0 0 0
368 2 0.02135063480458368 8.129 2.3466 3.3191 0 0 0
373 2 0.01693964119821465 7.9961415482244345 2.0887209222226852 5.595778245121551 0 0 0
377 2 0.01450389525772362 10.04346709548756 3.4379734695299478 4.938771858754299 0 0 0
632 1 0.04761968075644932 8.1289 0 0 0 0 0
637 2 0.01394452488522737 8.1289 0 2.4893 0 0 0
642 2 0.01311109171845003 10.161 1.1734 1.6595 0 0 0
647 2 0.01439252252715532 10.101032058613281 1.0174886611417318 4.099777085235491 0 0 0
1686 2 0.03417853443133599 8.129 7.0398 0 0 0 0
1691 2 0.01398865457835588 8.129 7.0398 2.4893 0 0 0
1966 2 0.01982927073039312 10.1613 5.8666 0.8298 0 0 0
699 2 0.01755128148731637 8.13941657234655 0.028688016006215605 4.755067359383184 0 0 0
326 2 0.0142327653544872 12.106691454001059 4.680809482356555 4.119540730073598 0 0 0
657 2 0.01333793551689547 12.062518968614919 2.403974925392479 5.530041748571261 0 0 0
166 2 0.03187240369717119 18.2901 3.52 0 0 0 0
171 2 0.01646099482924052 18.2901 3.52 2.4893 0 0 0
216 2 0.01819744146563182 16.2579 2.3466 0.8298 0 0 0
221 2 0.01399260428997074 16.258 4.6932 1.6595 0 0 0
226 2 0.01839462371919055 16.14252459093164 4.480345870750907 3.916292707622645 0 0 0
261 2 0.01541289337362768 12.1936 2.3466 0.8298 0 0 0
266 2 0.03172878471972787 14.2257 3.52 0 0 0 0
271 1 0.0315685998634304 14.2257 3.52 2.4893 0 0 0
276 2 0.01776513545621283 14.2256 5.8666 3.3191 0 0 0
281 2 0.01715531170005671 14.309695896246524 5.533936150117511 5.612401979697938 0 0 0
321 2 0.01489311007199066 12.1935 4.6932 1.6595 0 0 0
541 2 0.03276257261484207 16.258 0 0 0 0 0
546 2 0.01633893762998362 16.258 0 2.4893 0 0 0
551 2 0.01627425184443382 16.2579 2.3466 3.3191 0 0 0
556 2 0.01636314066983234 16.272263991695628 2.172293159464823 5.758892971663093 0 0 0
586 2 0.02846097248516537 12.1935 0 0 0 0 0
591 1 0.0291105298957069 12.1935 0 2.4893 0 0 0
596 1 0.03199718304264752 14.2256 1.1734 1.6595 0 0 0
601 2 0.01080846691752417 14.178527455886885 1.1234901050502115 4.100449589967086 0 0 0
606 2 0.01429120674260058 14.257735557503747 3.274528429156056 4.967482202102029 0 0 0
652 1 0.03488334918825073 12.1936 2.3466 3.3191 0 0 0
1871 2 0.02943915643218431 16.2579 7.0398 0 0 0 0
1876 2 0.01100019109290041 16.2579 7.0398 2.4893 0 0 0
1921 2 0.01893649543640138 14.2256 5.8666 0.8298 0 0 0
1971 2 0.03377665144843635 12.1936 7.0398 0 0 0 0
1976 2 0.0116040843274817 12.1936 7.0398 2.4893 0 0 0
501 2 0.01511317203045668 18.229622900095958 1.1894199947355828 3.9926254743343437 0 0 0
982 2 0.01280272249181805 12.222075842940004 0.25854814187332703 5.001514379552837 0 0 0
1 2 0.0147120153493689 12.290832937878216 6.950587010935171 4.873500099251927 0 0 0
285 2 0.01991753268828188 16.28290023745862 7.136322506755893 4.888981373223985 0 0 0
466 2 0.0165863917815622 24.38068537450711 2.323367807225261 5.69449110225417 -1 0 0
195 2 0.01616511278801357 0.10059003213768494 7.200687583122346 4.957918533340141 0 0 0
236 2 0.01683363961385215 18.29637175060626 5.680359435093468 5.704788160119491 0 0 0
560 2 0.01945567585344598 18.21144236669984 3.280552399044466 4.905377169976876 0 0 0
115 2 0.02101575188378425 20.3225 2.3466 0.8298 0 0 0
120 2 0.03074062335651231 22.3546 3.52 0 0 0 0
125 1 0.03578938467814457 22.3546 3.52 2.4893 0 0 0
176 2 0.01336335385860273 20.3223 4.6932 1.6595 0 0 0
181 2 0.01860115030538712 20.343118689321066 4.726001516375401 4.067646930880252 0 0 0
186 2 0.0141462604865467 22.3547 5.8666 3.3191 0 0 0
191 1 0.03699147484463135 22.451317428548 6.039632638132848 5.7805680372092745 0 0 0
231 2 0.01729674646897263 18.2902 5.8666 3.3191 0 0 0
441 2 0.03417614332429694 20.3223 0 0 0 0 0
446 2 0.01499226722105047 20.3223 0 2.4893 0 0 0
451 2 0.01466105597070885 22.3545 1.1734 1.6595 0 0 0
456 2 0.01146347639968618 22.406686472785935 1.2230962055759536 4.147190820216267 0 0 0
496 2 0.01838870590266632 18.2902 1.1734 1.6595 0 0 0
506 2 0.01470479909482353 20.3225 2.3466 3.3191 0 0 0
511 2 0.01778040238605069 20.09942163237265 2.4882962591403883 5.694307860412944 0 0 0
515 2 0.01629701942668561 22.368790099626437 3.4288014745587687 4.987883686720531 0 0 0
1773 2 0.01880035010609613 22.3547 5.8666 0.8298 0 0 0
1820 1 0.03781896356552617 18.2902 5.8666 0.8298 0 0 0
1825 2 0.03039937587405021 20.3225 7.0398 0 0 0 0
1830 2 0.01501091663475206 20.3225 7.0398 2.4893 0 0 0
835 1 0.03792635209437606 20.38929690946147 0.25015058300453596 4.803750421792274 0 0 0
149 2 0.01751602053906395 4.169726651922472 7.178988446494827 5.010737149927899 0 0 0
1406 2 0.01380153066526502 4.0646 9.3864 0.8298 0 0 0
1411 2 0.03233008787266402 6.0967 10.5598 0 0 0 0
1416 2 0.01167890100998346 6.0967 10.5598 2.4893 0 0 0
1452 2 0.01611192476577179 0 9.3864 0.8298 0 0 0
1457 1 0.05147690024169386 2.0322 10.5598 0 0 0 0
1462 2 0.009806264996419227 2.0322 10.5598 2.4893 0 0 0
1742 2 0.01849023149266771 6.0966 8.2132 1.6595 0 0 0
1788 1 0.03594998094348471 2.0323 8.2132 1.6595 0 0 0
1793 2 0.01488906839133181 1.9546615487392618 8.35778700968293 4.182882009209067 0 0 0
1798 1 0.03755657374159792 4.0646 9.3864 3.3191 0 0 0
1803 2 0.01205058710434251 3.8849906866217885 9.295795333423065 5.667410982787955 0 0 0
1845 2 0.01646575172856302 0 9.3864 3.3191 0 0 0
1850 2 0.01611861490461345 0.020042083349789894 9.402759633452417 5.764181484257894 0 0 0
1854 2 0.01844924298261756 2.0448739317879827 10.567989019486248 4.917070716312919 0 0 0
1131 2 0.02069972928506669 2.0323 12.9064 0.8298 0 0 0
1467 2 0.01499888574580777 4.0643 11.7332 1.6595 0 0 0
1472 2 0.01256555341687984 3.868343783331214 11.695290667427468 4.0195937519514535 0 0 0
1513 2 0.01260114848296323 0 11.7332 1.6595 0 0 0
1523 2 0.02218216791173994 2.0323 12.9064 3.3191 0 0 0
1528 2 0.01505903522844797 1.9634099553344675 12.881162816741027 5.865568423275102 0 0 0
1807 1 0.03793264500452757 6.109672530429126 10.54714089925185 4.975045833018465 0 0 0
1747 2 0.01401718148306563 6.062940882249837 8.20521188165205 3.995784826309038 0 0 0
1482 2 0.007963103458603418 6.000590754513494 12.90164714213469 5.6945919393880216 0 0 0
102 2 0.01243675786832742 8.044830352895067 7.063229613040081 4.800779176616894 0 0 0
1361 2 0.01960875523846612 8.1291 9.3864 0.8298 0 0 0
1366 1 0.05258965758355583 10.1613 10.5598 0 0 0 0
1371 2 0.01171236850460312 10.1613 10.5598 2.4893 0 0 0
1696 2 0.01415648679712489 10.1612 8.2132 1.6595 0 0 0
1701 1 0.03570013916194698 10.192354378341623 8.212074406243495 4.141255876107006 0 0 0
1706 2 0.01353428732094933 10.213880994715447 10.525121277897812 4.863151887554642 0 0 0
1752 2 0.01832650726945004 8.1291 9.3864 3.3191 0 0 0
1757 2 0.01224655052113796 8.206888411453301 9.390524523556007 5.537384711911676 0 0 0
1041 2 0.01649959680773962 10.1612 12.9064 0.8298 0 0 0
1086 1 0.04163803366769013 6.0968 12.9064 0.8298 0 0 0
1376 1 0.03900039548561056 10.1612 12.9064 3.3191 0 0 0
1381 1 0.03272311642892176 10.264630864958347 12.918454248060735 5.755020584247745 0 0 0
1421 2 0.0138991977245111 8.1289 11.7332 1.6595 0 0 0
1426 2 0.013755652899575 7.982239448855936 11.500923898948255 4.069587761661143 0 0 0
1477 2 0.01589258389271134 6.0968 12.9064 3.3191 0 0 0
1656 2 0.01916686405399054 12.302527516252336 9.473159314550381 5.695360386641948 0 0 0
1326 2 0.0167746901973542 12.194729278902344 11.851766023930786 4.00931443677981 0 0 0
1545 2 0.01641371238820021 16.258 9.3864 0.8298 0 0 0
1596 2 0.03370806866001512 14.2256 10.5598 0 0 0 0
1601 2 0.01632825035224864 14.2256 10.5598 2.4893 0 0 0
1646 2 0.01617159312211289 12.1935 9.3864 0.8298 0 0 0
1651 2 0.01766763505094505 12.1935 9.3864 3.3191 0 0 0
1660 2 0.01458284946519851 14.249133939165768 10.44847921838479 5.018343836051608 0 0 0
1881 1 0.03489480346250091 18.2901 8.2132 1.6595 0 0 0
1886 2 0.01468956607951635 18.353368976523416 8.368434718721055 4.093844515654659 0 0 0
1926 1 0.03742176424180738 14.2257 8.2132 1.6595 0 0 0
1931 2 0.01791617474297323 14.280676112770932 8.145266681471098 4.126307919046843 0 0 0
1936 2 0.01875460841243966 16.258 9.3864 3.3191 0 0 0
1941 2 0.01294200113581245 16.15182908593169 9.337787890554747 5.710531971249461 0 0 0
1270 2 0.01601157952631136 14.2257 12.9064 0.8298 0 0 0
1321 2 0.01699505249446166 12.1935 11.7332 1.6595 0 0 0
1331 2 0.0163419315602799 14.2257 12.9064 3.3191 0 0 0
1336 1 0.03338061215140478 14.091091967037645 12.841420913570413 5.802967435782133 0 0 0
1606 2 0.01567578327693354 16.2578 11.7332 1.6595 0 0 0
1611 2 0.0169209519593748 16.241520819154516 11.963582377115014 4.059904581067301 0 0 0
1621 2 0.01478388918596177 18.44883507784974 12.924269865561653 5.724774973472364 0 0 0
1945 2 0.01679990988249146 18.276141661105164 10.6056297750446 4.904250095579129 0 0 0
1518 2 0.0155026110905712 0.15295457202862045 11.730198147239493 4.040225444745119 0 0 0
240 2 0.01614773532138587 20.237398270593527 6.998320986188131 4.896657982822043 0 0 0
1498 2 0.01895032718036396 20.3226 9.3864 0.8298 0 0 0
1503 2 0.03062314113765427 22.3547 10.5598 0 0 0 0
1508 1 0.02992074841738106 22.3547 10.5598 2.4893 0 0 0
1550 2 0.03354568213223955 18.2902 10.5598 0 0 0 0
1555 2 0.01530989798950679 18.2902 10.5598 2.4893 0 0 0
1835 2 0.01841082012018171 22.3546 8.2132 1.6595 0 0 0
1840 2 0.01621389825065283 22.363150902076235 8.098079975066856 4.032958244016608 0 0 0
1891 2 0.01370239287109896 20.3226 9.3864 3.3191 0 0 0
1896 2 0.01598020465596445 20.452356826816487 9.607121281474718 5.734667666361908 0 0 0
1900 1 0.03160577546862452 22.386132759647424 10.53966637456385 4.793785424250457 0 0 0
1177 1 0.036494889559732 22.3546 12.9064 0.8298 0 0 0
1223 2 0.02077061916278589 18.2903 12.9064 0.8298 0 0 0
1560 2 0.01275503881683326 20.3223 11.7332 1.6595 0 0 0
1565 1 0.03101143138712222 20.310395260902002 11.720431056176109 4.1549985330271175 0 0 0
1570 1 0.02675897833797041 22.3546 12.9064 3.3191 0 0 0
1575 1 0.02829448181372402 22.44029727623653 12.810809655606068 5.631122513673001 0 0 0
1616 2 0.01677258522379995 18.2903 12.9064 3.3191 0 0 0
1625 1 0.0338690424903105 20.44832501463927 14.070815050632671 4.919962493544572 0 0 0
1532 1 0.03110941255316484 4.1402952530076105 14.076677314919413 4.867821921738582 0 0 0
1579 2 0.01999910630016526 0.09324855183228059 14.14988991343601 4.886058707082782 1 0 0
491 1 0.03544602016058897 6.0967 19.9463 0.8298 0 0 0
536 2 0.01844277712837113 2.0324 19.9463 0.8298 0 0 0
811 1 0.03480425718479421 4.0646 16.4265 0.8298 0 0 0
826 2 0.01579590394917554 6.0967 19.9463 3.3191 0 0 0
856 2 0.01535392106647552 0 16.4265 0.8298 0 0 0
861 1 0.05068646873571622 2.0323 17.5997 0 0 0 0
866 2 0.01050798697037598 2.0323 17.5997 2.4893 0 0 0
871 2 0.008855357499950402 4.0644 18.7731 1.6595 0 0 0
876 2 0.01614315828323899 4.051155189247677 18.787361931212935 4.176060072791714 0 0 0
927 2 0.01317033891822426 2.0324 19.9463 3.3191 0 0 0
932 2 0.01370247132997744 2.014953187689395 19.97134540375431 5.592272380093666 0 0 0
1136 2 0.02978781268500812 4.0644 14.0799 0 0 0 0
1141 2 0.01024722464488537 4.0644 14.0799 2.4893 0 0 0
1146 2 0.00922815661234333 6.0967 15.2531 1.6595 0 0 0
1192 2 0.01586510518898494 2.0322 15.2531 1.6595 0 0 0
1197 2 0.01176804755782763 1.9933364005137655 15.262691494896291 4.027547295334885 0 0 0
1202 1 0.03116755011974385 4.0646 16.4265 3.3191 0 0 0
1207 1 0.02686997096528921 3.9209118969117487 16.36404023423728 5.770623684448644 0 0 0
1248 2 0.02012619613732507 0 16.4265 3.3191 0 0 0
1257 1 0.03754919473806792 1.98773149417677 17.482075573328146 4.904275715017048 0 0 0
1151 1 0.03651750598559821 6.037792969650322 15.27181655603625 4.159830492464871 0 0 0
1156 2 0.01245250360704574 6.064187858854332 17.639367813316163 4.739345487440655 0 0 0
1211 2 0.01069507243378188 3.885549489996139 18.829890643106207 6.49553254699661 0 0 0
1431 2 0.01239383139555749 8.082264902891225 13.94019022366088 4.904064080889269 0 0 0
831 2 0.01883470089443177 6.071273169992244 19.9085517571112 5.526316525289057 0 0 0
390 1 0.03523947587910416 10.1613 19.9463 0.8298 0 0 0
716 2 0.02970061872218599 10.1612 17.5997 0 0 0 0
721 1 0.03014221661573643 10.1612 17.5997 2.4893 0 0 0
726 1 0.02823965147894226 12.1933 18.7731 1.6595 0 0 0
766 2 0.0208315239593087 8.1289 16.4265 0.8298 0 0 0
771 2 0.009682477618459931 8.129 18.7731 1.6595 0 0 0
776 2 0.02080077120631631 8.230541458362811 18.835162475866714 4.0514942272914265 0 0 0
781 2 0.01061400986577679 10.1613 19.9463 3.3191 0 0 0
786 2 0.01840550323443146 10.165799626663862 19.95364477224129 5.612464648739012 0 0 0
816 1 0.04815664952280105 6.0968 17.5997 0 0 0 0
821 2 0.0121403713411672 6.0968 17.5997 2.4893 0 0 0
991 2 0.0349065597110664 12.1933 14.0799 0 0 0 0
996 2 0.01198351449055011 12.1933 14.0799 2.4893 0 0 0
1046 2 0.01479997840923616 10.1613 15.2531 1.6595 0 0 0
1051 2 0.01383981511575149 10.139275777651944 15.210733853109748 4.005742384774096 0 0 0
1091 2 0.03217374253459369 8.129 14.0799 0 0 0 0
1096 2 0.01485246292606696 8.129 14.0799 2.4893 0 0 0
1101 2 0.01768039389819368 8.1289 16.4265 3.3191 0 0 0
1106 2 0.0178226019886917 8.129868959928347 16.683711555914098 5.714941682036358 0 0 0
1110 2 0.01374952625847634 10.116404547350935 17.2270904874172 4.7292745250655175 0 0 0
1061 2 0.01208575936595161 12.090239240642328 16.654392864053218 5.752181948240011 0 0 0
1165 2 0.01541939777101052 8.14794266783707 18.830414471105243 6.446920880326526 0 0 0
1385 2 0.01051131977660497 12.348066798193411 14.29492955721662 4.9005477394264085 0 0 0
1340 2 0.0135064303762847 16.1556748123662 14.161343874869683 4.983692928547317 0 0 0
731 1 0.03485098608566192 12.246244669189526 18.79722527099917 4.183741544644513 0 0 0
881 2 0.01605845167537929 16.273200194593887 21.017179741384545 4.862513226069664 0 -1 0
343 2 0.01770892206895836 14.2259 19.9463 0.8298 0 0 0
665 2 0.01506728398068636 12.1935 16.4265 0.8298 0 0 0
670 2 0.03111878212304978 14.2257 17.5997 0 0 0 0
675 2 0.009698562237015339 14.2257 17.5997 2.4893 0 0 0
680 2 0.01789159943332343 16.2579 18.7731 1.6595 0 0 0
685 2 0.02140172677642427 16.28172867457572 18.67131637577888 4.275042544267563 0 0 0
736 2 0.0155039462309929 14.2259 19.9463 3.3191 0 0 0
741 2 0.01462444085014337 14.088163941516084 19.859232578525777 5.698826978646881 0 0 0
948 1 0.03486102479337623 16.258 16.4265 0.8298 0 0 0
1001 1 0.03161930099841453 14.2256 15.2531 1.6595 0 0 0
1006 2 0.01171946908212081 14.443855276552457 15.067073092831862 4.135259638698758 0 0 0
1011 2 0.01564260061678334 16.258 16.4265 3.3191 0 0 0
1016 2 0.01331539635084572 16.396833295413636 16.36370155950787 5.682650255545459 0 0 0
1056 1 0.03498901873378845 12.1935 16.4265 3.3191 0 0 0
1065 2 0.01888271470857052 14.405245643693892 17.40932851275733 4.98879206152762 0 0 0
1275 1 0.04584594524012937 16.2579 14.0799 0 0 0 0
1280 1 0.03072795215296736 16.2579 14.0799 2.4893 0 0 0
1290 2 0.0173317620433993 18.22981634611056 15.136833346054738 4.052295966661391 0 0 0
1020 2 0.01507700541360744 18.208415334196232 17.598865001474504 4.893995367028178 0 0 0
1253 2 0.01542745641292573 24.19978294687505 16.68123930581434 5.704263013114232 -1 0 0
922 2 0.01394213425131458 0.16399260295526247 18.657063347606734 3.944629945759376 1 0 0
695 1 0.03657015178832705 18.29457992814043 20.05561472006579 5.744153742031365 0 0 0
581 2 0.01892726781627843 22.3547 19.9463 0.8298 0 0 0
627 2 0.02216009487964988 18.2902 19.9463 0.8298 0 0 0
690 2 0.01561986111575582 18.2902 19.9463 3.3191 0 0 0
902 1 0.03408254905917268 20.3223 16.4265 0.8298 0 0 0
907 1 0.04904061149581548 22.3546 17.5997 0 0 0 0
912 2 0.009803432335416112 22.3546 17.5997 2.4893 0 0 0
917 2 0.01512076762754019 24.3868 18.7731 1.6595 0 0 0
953 2 0.03000010660973831 18.2903 17.5997 0 0 0 0
958 2 0.0142445143760721 18.2903 17.5997 2.4893 0 0 0
963 2 0.0143933310533049 20.3225 18.7731 1.6595 0 0 0
968 2 0.01607678104886695 20.349092438641872 18.892186253234446 4.08380713427214 0 0 0
973 2 0.01603102723061246 22.3547 19.9463 3.3191 0 0 0
978 2 0.01581828928042622 22.502506936925112 19.859477055457916 5.823765252481594 0 0 0
1182 2 0.03135782409027413 24.3868 14.0799 0 0 0 0
1187 2 0.01337460830264076 24.3868 14.0799 2.4893 0 0 0
1228 2 0.02994679891957502 20.3225 14.0799 0 0 0 0
1233 2 0.006804492714316858 20.3225 14.0799 2.4893 0 0 0
1238 1 0.03053157684066573 22.3547 15.2531 1.6595 0 0 0
1243 2 0.0114403907336719 22.429752325334473 15.318655515109306 4.176535197069103 0 0 0
1285 2 0.0105566096910677 18.2902 15.2531 1.6595 0 0 0
1295 1 0.03700198145428023 20.3223 16.4265 3.3191 0 0 0
1300 2 0.01387566809973311 20.34142862744242 16.324980479449074 5.825751509926237 0 0 0
1304 2 0.01832489011762425 22.261067516985776 17.594100314825138 4.722662477498906 0 0 0
1634 2 0.01317893734257948 22.221424477611198 15.219736066732038 6.659819955779051 0 0 0
475 2 0.01522499308261058 2.056862749910236 3.325181456019197 7.2118494259222325 0 0 0
479 2 0.01515870220535959 4.057049686956664 4.519044875138372 6.693765967568447 0 0 0
483 2 0.01496639865629684 4.116755944718397 4.465535104997257 8.977604548176894 0 0 0
532 1 0.03820680894701994 1.937270786323741 5.660692006228101 7.997645044860834 0 0 0
537 2 0.01596228880265887 2.0164028811553303 5.838123624998894 10.591686732381378 0 0 0
799 2 0.01738104234042603 2.0262667168734776 0.9530235918314465 6.5863206266611085 0 0 0
803 2 0.01355893647675661 1.835270462734123 1.2271621403142228 8.94304666915425 0 0 0
807 2 0.01746359941019247 4.131587516629586 2.2242421408246926 8.158527530921338 0 0 0
812 2 0.01881402140381389 3.9503299658069166 2.2658556997326267 10.57575451776955 0 0 0
862 2 0.01695853458553937 2.085021413678269 3.3944464379957315 9.693653663704614 0 0 0
867 2 0.01596608124644215 2.114924893910983 3.2898999769309145 12.070637888436947 0 0 0
872 2 0.01561649341682811 4.008947283319715 4.7297143053075485 11.251875778683203 0 0 0
1193 2 0.01352060780736802 2.0149950954785156 1.0525915874736247 11.317988493353909 0 0 0
492 2 0.01740137149258171 6.321866497338027 5.882453759071632 10.613326343895325 0 0 0
429 2 0.01795171533484217 6.20410842773366 3.408707762359913 7.391676387500931 0 0 0
822 2 0.01480665950741796 6.1176093225980335 3.260454438359779 11.974573969263012 0 0 0
1147 2 0.01324848906622313 6.097535025575632 0.7962784228354812 11.312381493907255 0 0 0
754 2 0.02043535475489069 6.071933722407747 1.0632455455451888 6.491077054212646 0 0 0
852 2 0.01311342972242276 24.338292504708196 2.4368185321156615 8.023589643286218 -1 0 0
524 1 0.03541613584569608 0.034455306223089864 4.740066765249258 6.573783840258687 0 0 0
857 1 0.03500153355238758 24.35602181730509 2.3552095869970486 10.496437433398498 -1 0 0
154 2 0.01464151458977401 4.0337891489954805 7.119666352300281 7.440601288787181 0 0 0
750 2 0.01211272739925993 4.082149958136723 0.0789799811625332 7.29934413441388 0 0 0
795 2 0.01596498473773245 24.278453168317746 0.10065060748202467 7.41560747476989 -1 0 0
487 2 0.01569797796606461 5.9532271207451455 5.8119982167587185 8.364834346058496 0 0 0
758 2 0.01540870895957207 6.122448354127915 1.0795294973366454 8.919136497261187 0 0 0
817 2 0.01740493720856048 6.232431483441538 3.4402843545471304 9.655318976777929 0 0 0
382 2 0.016100630837701 9.982008018258023 3.5247591280700705 7.41599479829738 0 0 0
386 2 0.01642861385002884 10.418512149027604 5.885069223204162 8.203484637632108 0 0 0
391 2 0.01691454868361444 10.003530135127217 5.991679207940995 10.5409422001684 0 0 0
433 2 0.01718663641599313 8.07070744265811 4.497696276627987 6.605593322279037 0 0 0
437 2 0.01895049914993402 8.160935974939791 4.572017098500767 9.010767529094053 0 0 0
708 1 0.03729951772357599 10.179308270803258 1.3102999757936304 6.524648668925858 0 0 0
712 1 0.03060455071244056 9.985717871257444 1.1385734015391897 8.928411902647305 0 0 0
717 2 0.01426485106220245 10.309697593197509 3.3880889652011565 9.727116747318503 0 0 0
762 2 0.009915778924047963 8.06465771645451 2.216442810205842 7.986079017050144 0 0 0
767 1 0.03581306806137161 8.159500923524671 2.3120697360086546 10.430959547906818 0 0 0
722 2 0.01558999551031429 10.155191282989142 3.4952927202523782 12.1483890074734 0 0 0
772 2 0.01854464045981706 8.033949189684716 4.792250580005701 11.457242477772029 0 0 0
1047 2 0.01101943255821585 10.12783456610546 1.3946981493809576 11.400170839419749 0 0 0
727 1 0.03682390933533155 12.139500420936303 4.837362020104706 11.316585136214094 0 0 0
447 2 0.01955079495522435 8.148862939332965 7.2133761208889355 12.251185879991597 0 0 0
1092 1 0.0302109000226936 8.199921059139742 21.07604454563201 9.653029306976544 0 -1 0
704 2 0.01306677831617213 8.32391012258561 20.981072071928907 7.106705144357379 0 -1 0
997 2 0.01990084718358881 12.108595087864932 0.06033815023112128 12.140065332687476 0 0 0
1057 2 0.01641986231409603 12.10504591880167 2.482715661921501 12.996350515897042 0 0 0
987 2 0.01151440821340072 12.161924333325738 0.2239702514663325 7.365536826322181 0 0 0
331 2 0.01723848731869344 12.255074805161303 4.7006803947415134 6.692276882215531 0 0 0
335 2 0.01392279755100566 12.057230357680016 4.767675050039954 8.93308252631718 0 0 0
661 2 0.01562799345367307 12.252032749470196 2.489863562297654 7.992244628828485 0 0 0
339 1 0.03857815413981917 14.184062990227162 5.804227699298787 8.042417099385892 0 0 0
344 2 0.01457426476474796 14.236717820938306 5.964719734387882 10.471760561962487 0 0 0
611 2 0.013237315800806 14.145458137360322 3.5729710351270354 7.107736023329727 0 0 0
615 2 0.01816587135198719 16.199900661660237 4.606624566514491 6.348273425639613 0 0 0
619 2 0.01816628959104234 16.31506004443247 4.605021983393043 8.852162708765206 0 0 0
666 2 0.01703360963672317 12.196296155398063 2.4550600292701223 10.592988127363347 0 0 0
671 2 0.01636781871366325 14.097353596133631 3.5452652069636117 9.651081489600458 0 0 0
936 1 0.03452017906479325 14.30989913479855 1.1247923406615654 6.522245622960809 0 0 0
940 1 0.03202160772233625 14.260712373699945 1.1826560174284177 8.909720266932348 0 0 0
944 2 0.01062235794690943 16.17325661380402 2.401732216362374 8.113632783607471 0 0 0
949 2 0.01206546606699892 15.910518315731476 2.2929461319381645 10.551271495251072 0 0 0
954 2 0.01493555571690967 18.177000851632794 3.3200125436165195 9.713060262592874 0 0 0
676 2 0.01293744748936055 14.09074227745019 3.4976858475418657 12.169409126784252 0 0 0
681 2 0.01790581805840118 16.050639962116183 4.606034623275302 11.244378675938512 0 0 0
1002 2 0.0167392574848183 14.291039147625332 1.1708280887461104 11.34195528477357 0 0 0
290 2 0.01424013320227398 16.117462637981863 7.0243100414064354 7.351912208355477 0 0 0
565 2 0.01958978323131642 18.124671213637278 3.535269909775536 7.324153929972642 0 0 0
354 2 0.01701085378017162 16.28842262381427 6.990276323055511 12.13459010991343 0 0 0
992 2 0.01512787822187475 12.130664613387145 0.06343378994615248 9.847502515056664 0 0 0
886 1 0.02694040888215913 16.342472790390868 0.021395894188891144 7.396575851289226 0 0 0
1276 1 0.02628969670411106 16.260790060832118 0.05026903155124843 9.814648369596698 0 0 0
1281 2 0.01148801961249626 16.31129297521932 0.02764733639606757 12.308650668109358 0 0 0
737 2 0.01110677856237944 14.339653017774676 5.934239245548092 12.929589174247042 0 0 0
918 2 0.01614717480075819 0.08972567072668315 4.4814492697282855 11.489373472227445 0 0 0
628 2 0.02180165031608491 18.17773573181245 5.710920794782754 10.602783052619792 0 0 0
894 1 0.03431100885574655 18.164210282674834 1.0765682852348937 8.937837876323123 0 0 0
1286 1 0.03499888393680755 18.148114750424405 1.161832738732348 11.466606798093105 0 0 0
959 2 0.01103498181939758 17.9833483870554 3.5682324279092907 12.159512203998393 0 0 0
623 2 0.01810970922019406 18.320869879178137 5.886987813733248 8.208746023460515 0 0 0
528 2 0.01011927425910709 24.360280604596728 4.6432168328450105 9.141821883196215 -1 0 0
520 2 0.01367326393405785 22.197307200726744 3.635846051497704 7.3350971624667824 0 0 0
569 2 0.01731660269066106 20.306770188188146 4.884263886309741 6.529178779246523 0 0 0
573 2 0.01654011291063163 20.25163718133535 4.75628760677122 8.905796288919724 0 0 0
577 2 0.01314124022760927 22.383612925871294 5.878217895325639 8.191551246694102 0 0 0
582 1 0.03797149828138738 22.273090405820653 5.964528869276089 10.714355488099573 0 0 0
840 2 0.01606629802616341 20.354607601592935 0.10225034418551818 7.408684055923004 0 0 0
844 2 0.01722437939268549 22.484203087625087 1.3553984801841534 6.628620135497663 0 0 0
848 1 0.03345555964676963 22.306457493469086 1.3330996723639124 9.128275641824626 0 0 0
890 2 0.01054328995890982 18.37604831566819 1.206233918813062 6.609757134602547 0 0 0
898 2 0.01394932585284012 20.268694938374864 2.5063902316864435 7.9638830783275525 0 0 0
903 1 0.0340249965086325 20.357008313690237 2.353725112464986 10.548597647458326 0 0 0
908 1 0.02964120806784206 22.37010853442585 3.6339191861159286 9.652802746617919 0 0 0
913 2 0.01742451026496289 22.20414529230607 3.3936275809329675 12.289652451831994 0 0 0
964 2 0.01604699561627682 20.30669674986908 4.80538021528736 11.406280210697895 0 0 0
1234 2 0.01945658091019603 20.211721941778205 21.045285807309682 12.163709166860745 0 -1 0
1239 2 0.009176295866683538 22.191051854918925 1.1451373783106886 11.41036466521798 0 0 0
1229 2 0.0119680765628589 20.2330864425983 0.03919558109339905 9.651681309257262 0 0 0
587 2 0.0175774689015431 24.280284442793114 6.978518260628034 9.57812244040061 -1 0 0
542 1 0.03774545496038715 4.05945411995796 6.850694655979397 9.811803347911452 0 0 0
547 2 0.01362649670438605 3.979601261296141 7.153703345831731 12.111834459904783 0 0 0
204 2 0.0185813074072439 1.7279740196246354 8.24731916090253 6.466429339355777 0 0 0
208 2 0.01398130969160931 2.127267826122775 8.381737854087438 8.901472730038426 0 0 0
212 2 0.02045139839459412 4.169910435780665 9.377635396366028 7.876903865254002 0 0 0
217 2 0.01686235138812844 4.021317296056337 9.412544722751724 10.509250311968433 0 0 0
267 2 0.01731876115830427 2.093069571561507 10.608790639425239 9.932785029557923 0 0 0
1859 2 0.01474517561422955 2.0636079545639796 10.452185682652768 7.36053087478746 0 0 0
272 2 0.01808548798351253 2.0360474799069226 10.497022312901985 12.29485693861296 0 0 0
597 2 0.01753327449802657 2.134843866283737 8.175766146277075 11.275804549346642 0 0 0
1863 1 0.03660234591255963 4.065933456044548 11.839543821393178 6.668081237891545 0 0 0
1867 2 0.01381927008681758 4.14117461821874 11.928340601592625 9.026415579074676 0 0 0
1917 2 0.01388633828948907 1.9857022097262773 13.068769625672104 8.216455129923864 0 0 0
1922 2 0.01494905151760981 2.057009286683641 12.930597088239402 10.667346018597563 0 0 0
222 2 0.01927908020092499 3.87419639812573 11.550097049627297 11.471356890339147 0 0 0
1877 2 0.009652417920826092 3.9679127003957477 13.916721554796817 12.229698330764169 0 0 0
158 2 0.01726201526965367 6.067933100742627 8.265680387201131 6.546276344868214 0 0 0
162 2 0.01374473285195368 6.274404470111392 8.040446125531995 8.919300251737473 0 0 0
1537 1 0.02834885162790167 4.033070964528803 14.071426063095524 7.224610421104641 0 0 0
1812 2 0.009603285826051147 6.286584977491746 10.648890575520124 7.364817195989744 0 0 0
1913 1 0.03299410866300968 0.0165414040267821 11.951282730132501 9.029384612942188 0 0 0
1584 2 0.015567801006365 24.218652813177197 14.099461685774964 7.223421928076604 0 0 0
497 2 0.01759808247568136 5.946177170529728 8.142760235957123 11.345974073554414 0 0 0