# LAMMPS data file written by OVITO Basic 3.8.4

14 atoms
3 atom types

0.0 2.8559548855 xlo xhi
0.0 2.8559548855 ylo yhi
0.0 32.3114395142 zlo zhi

Masses

1 26.981538  # Al
2 1.00794  # H
3 15.9994  # O

Atoms  # charge

1 1 0.0 0.0 0.0 21.190584948
2 1 0.0 1.427977443 1.427977443 23.236900981
3 1 0.0 0.0 0.0 17.166162903
4 1 0.0 1.427977443 1.427977443 19.178390296
5 1 0.0 0.0 0.0 13.133049218
6 1 0.0 1.427977443 1.427977443 15.145276611
7 1 0.0 0.0 0.0 9.074538533
8 1 0.0 1.427977443 1.427977443 11.120854566
9 2 0.0 1.4790056441 2.1850860665 31.797940875
10 2 0.0 2.7723354558 1.4279767529 31.2849659046
11 2 0.0 0.2810575902 1.112453599 26.7656894585
12 2 0.0 1.5743874018 1.4279767006 27.6240617585
13 3 0.0 1.8023354558 1.4279767529 31.2849659046
14 3 0.0 0.6043874018 1.4279767006 27.6240617585
