# LAMMPS data file written by OVITO Basic 3.8.4

15 atoms
3 atom types

0.0 2.8573260307 xlo xhi
0.0 2.4745169295 ylo yhi
0.0 41.9939422607 zlo zhi
-1.4286630154 0.0 0.0 xy xz yz

Masses

1 26.981538  # Al
2 1.00794  # H
3 15.9994  # O

Atoms  # charge

1 1 0.0 1.42866442 0.824838116 14.007120999
2 1 0.0 -1.448e-06 1.64967874 11.658778245
3 1 0.0 0.0 0.0 16.326320929
4 1 0.0 1.42866442 0.824838116 20.99697113
5 1 0.0 -1.448e-06 1.64967874 18.664291111
6 1 0.0 0.0 0.0 23.32965115
7 1 0.0 1.42866442 0.824838116 27.986821261
8 1 0.0 -1.448e-06 1.64967874 25.667622583
9 1 0.0 0.0 0.0 30.335165268
10 2 0.0 0.7144477362 0.7114219632 40.5307630194
11 2 0.0 2.0077775479 1.4239990885 39.9575338564
12 2 0.0 -0.0133080976 0.2591550001 34.5817093601
13 2 0.0 1.2800217141 1.0038290054 35.1125751234
14 3 0.0 1.0377775479 1.4239990885 39.9575338564
15 3 0.0 0.3100217141 1.0038290054 35.1125751234
