# LAMMPS data file written by Ovito Basic 3.0.0-dev791
504 atoms
1 atom types
0.0 14.0279998779 xlo xhi
0.0 11.9214689244 ylo yhi
0.0 79.6360015869 zlo zhi
4.6767732926 0.0 0.0 xy xz yz

Atoms  # charge

1 1 0.0 4.675999641 5.044000149 0.397000015
2 1 0.0 2.338000059 1.833999872 1.190999985
3 1 0.0 7.013999939 4.126999855 3.573999882
4 1 0.0 4.676000118 0.916999936 4.368000031
5 1 0.0 2.338000059 3.210000038 6.75
6 1 0.0 0.0 0.0 7.545000076
7 1 0.0 7.013999939 5.501999855 9.133000374
8 1 0.0 4.676000118 2.292999983 9.927000046
9 1 0.0 2.337999821 4.585000038 12.31000042
10 1 0.0 7.013999939 1.376000047 13.104000092
11 1 0.0 4.676000118 3.667999744 15.486001015
12 1 0.0 2.338000059 0.458999991 16.281000137
13 1 0.0 7.013999939 2.750999928 18.663000107
14 1 0.0 4.675999641 5.044000149 21.045999527
15 1 0.0 2.338000059 1.833999872 21.840000153
16 1 0.0 7.013999939 4.126999855 24.222000122
17 1 0.0 4.676000118 0.916999936 25.016000748
18 1 0.0 2.338000059 3.210000038 27.399000168
19 1 0.0 0.0 0.0 28.193000793
20 1 0.0 7.013999939 5.501999855 29.781000137
21 1 0.0 4.676000118 2.292999983 30.576000214
22 1 0.0 2.337999821 4.585000038 32.958000183
23 1 0.0 7.013999939 1.376000047 33.751998901
24 1 0.0 4.676000118 3.667999744 36.134998322
25 1 0.0 2.338000059 0.458999991 36.929000854
26 1 0.0 7.013999939 2.750999928 39.312000275
27 1 0.0 4.675999641 5.044000149 41.694000244
28 1 0.0 2.338000059 1.833999872 42.488002777
29 1 0.0 7.013999939 4.126999855 44.870998383
30 1 0.0 4.676000118 0.916999936 45.66500473
31 1 0.0 2.338000059 3.210000038 48.04699707
32 1 0.0 0.0 0.0 48.841999054
33 1 0.0 2.337999821 4.585000038 1.984999895
34 1 0.0 7.013999939 1.376000047 2.779999971
35 1 0.0 4.676000118 3.667999744 5.162000179
36 1 0.0 2.338000059 0.458999991 5.955999851
37 1 0.0 7.013999939 2.750999928 8.338999748
38 1 0.0 4.675999641 5.044000149 10.720999718
39 1 0.0 2.338000059 1.833999872 11.515000343
40 1 0.0 7.013999939 4.126999855 13.898000717
41 1 0.0 4.676000118 0.916999936 14.692000389
42 1 0.0 2.338000059 3.210000038 17.075000763
43 1 0.0 0.0 0.0 17.868999481
44 1 0.0 7.013999939 5.501999855 19.457000732
45 1 0.0 4.676000118 2.292999983 20.250997543
46 1 0.0 2.337999821 4.585000038 22.634000778
47 1 0.0 7.013999939 1.376000047 23.428001404
48 1 0.0 4.676000118 3.667999744 25.811000824
49 1 0.0 2.338000059 0.458999991 26.604999542
50 1 0.0 7.013999939 2.750999928 28.986997604
51 1 0.0 4.675999641 5.044000149 31.370000839
52 1 0.0 2.338000059 1.833999872 32.164001465
53 1 0.0 7.013999939 4.126999855 34.546001434
54 1 0.0 4.676000118 0.916999936 35.340999603
55 1 0.0 2.338000059 3.210000038 37.722999573
56 1 0.0 0.0 0.0 38.516998291
57 1 0.0 7.013999939 5.501999855 40.105998993
58 1 0.0 4.676000118 2.292999983 40.900001526
59 1 0.0 2.337999821 4.585000038 43.282001495
60 1 0.0 7.013999939 1.376000047 44.076999664
61 1 0.0 4.676000118 3.667999744 46.458999634
62 1 0.0 2.338000059 0.458999991 47.252998352
63 1 0.0 7.013999939 2.750999928 49.636001587
64 1 0.0 7.013999939 0.688000023 0.0
65 1 0.0 4.676000118 2.980000019 2.382999897
66 1 0.0 2.338000059 5.272999763 4.764999866
67 1 0.0 7.013999939 2.062999964 5.559000492
68 1 0.0 4.676000118 4.35599947 7.941999912
69 1 0.0 2.338000059 1.146000028 8.736000061
70 1 0.0 7.013999939 3.438999891 11.118000984
71 1 0.0 4.676000118 0.229000002 11.913000107
72 1 0.0 4.675999641 5.730999947 13.501000404
73 1 0.0 2.337999821 2.522000074 14.295000076
74 1 0.0 7.013999939 4.81400013 16.677999496
75 1 0.0 4.676000118 1.605000019 17.472000122
76 1 0.0 2.337999821 3.896999836 19.854000092
77 1 0.0 7.013999939 0.688000023 20.648000717
78 1 0.0 4.676000118 2.980000019 23.031000137
79 1 0.0 2.338000059 5.272999763 25.413999557
80 1 0.0 7.013999939 2.062999964 26.208000183
81 1 0.0 4.676000118 4.35599947 28.590000153
82 1 0.0 2.338000059 1.146000028 29.384000778
83 1 0.0 7.013999939 3.438999891 31.767000198
84 1 0.0 4.676000118 0.229000002 32.561000824
85 1 0.0 4.675999641 5.730999947 34.14899826
86 1 0.0 2.337999821 2.522000074 34.944000244
87 1 0.0 7.013999939 4.81400013 37.326000214
88 1 0.0 4.676000118 1.605000019 38.119998932
89 1 0.0 2.337999821 3.896999836 40.502998352
90 1 0.0 7.013999939 0.688000023 41.2970047
91 1 0.0 4.676000118 2.980000019 43.67899704
92 1 0.0 2.338000059 5.272999763 46.062000275
93 1 0.0 7.013999939 2.062999964 46.856002808
94 1 0.0 4.676000118 4.35599947 49.238998413
95 1 0.0 7.013999939 3.438999891 0.79400003
96 1 0.0 4.676000118 0.229000002 1.588000059
97 1 0.0 4.675999641 5.730999947 3.177000046
98 1 0.0 2.337999821 2.522000074 3.970999956
99 1 0.0 7.013999939 4.81400013 6.353000641
100 1 0.0 4.676000118 1.605000019 7.147999763
101 1 0.0 2.337999821 3.896999836 9.529999733
102 1 0.0 7.013999939 0.688000023 10.324000359
103 1 0.0 4.676000118 2.980000019 12.706999779
104 1 0.0 2.338000059 5.272999763 15.088999748
105 1 0.0 7.013999939 2.062999964 15.883000374
106 1 0.0 4.676000118 4.35599947 18.266000748
107 1 0.0 2.338000059 1.146000028 19.059999466
108 1 0.0 7.013999939 3.438999891 21.443000793
109 1 0.0 4.676000118 0.229000002 22.236999512
110 1 0.0 4.675999641 5.730999947 23.825000763
111 1 0.0 2.337999821 2.522000074 24.618997574
112 1 0.0 7.013999939 4.81400013 27.002000809
113 1 0.0 4.676000118 1.605000019 27.796001434
114 1 0.0 2.337999821 3.896999836 30.179000854
115 1 0.0 7.013999939 0.688000023 30.972999573
116 1 0.0 4.676000118 2.980000019 33.354999542
117 1 0.0 2.338000059 5.272999763 35.737998962
118 1 0.0 7.013999939 2.062999964 36.532001495
119 1 0.0 4.676000118 4.35599947 38.914001465
120 1 0.0 2.338000059 1.146000028 39.708999634
121 1 0.0 7.013999939 3.438999891 42.090999603
122 1 0.0 4.676000118 0.229000002 42.884998322
123 1 0.0 4.675999641 5.730999947 44.473999023
124 1 0.0 2.337999821 2.522000074 45.268001556
125 1 0.0 7.013999939 4.81400013 47.650001526
126 1 0.0 4.676000118 1.605000019 48.444999695
127 1 0.0 11.689998627 5.044000149 0.397000015
128 1 0.0 9.352000237 1.833999872 1.190999985
129 1 0.0 14.027999878 4.126999855 3.573999882
130 1 0.0 11.68999958 0.916999936 4.368000031
131 1 0.0 9.352000237 3.210000038 6.75
132 1 0.0 7.013999939 0.0 7.545000076
133 1 0.0 14.027999878 5.501999855 9.133000374
134 1 0.0 11.689998627 2.292999983 9.927000046
135 1 0.0 9.352000237 4.585000038 12.31000042
136 1 0.0 14.027999878 1.376000047 13.104000092
137 1 0.0 11.68999958 3.667999744 15.486001015
138 1 0.0 9.352000237 0.458999991 16.281000137
139 1 0.0 14.027999878 2.750999928 18.663000107
140 1 0.0 11.689998627 5.044000149 21.045999527
141 1 0.0 9.352000237 1.833999872 21.840000153
142 1 0.0 14.027999878 4.126999855 24.222000122
143 1 0.0 11.68999958 0.916999936 25.016000748
144 1 0.0 9.352000237 3.210000038 27.399000168
145 1 0.0 7.013999939 0.0 28.193000793
146 1 0.0 14.027999878 5.501999855 29.781000137
147 1 0.0 11.689998627 2.292999983 30.576000214
148 1 0.0 9.352000237 4.585000038 32.958000183
149 1 0.0 14.027999878 1.376000047 33.751998901
150 1 0.0 11.68999958 3.667999744 36.134998322
151 1 0.0 9.352000237 0.458999991 36.929000854
152 1 0.0 14.027999878 2.750999928 39.312000275
153 1 0.0 11.689998627 5.044000149 41.694000244
154 1 0.0 9.352000237 1.833999872 42.488002777
155 1 0.0 14.027999878 4.126999855 44.870998383
156 1 0.0 11.68999958 0.916999936 45.66500473
157 1 0.0 9.352000237 3.210000038 48.04699707
158 1 0.0 7.013999939 0.0 48.841999054
159 1 0.0 9.352000237 4.585000038 1.984999895
160 1 0.0 14.027999878 1.376000047 2.779999971
161 1 0.0 11.68999958 3.667999744 5.162000179
162 1 0.0 9.352000237 0.458999991 5.955999851
163 1 0.0 14.027999878 2.750999928 8.338999748
164 1 0.0 11.689998627 5.044000149 10.720999718
165 1 0.0 9.352000237 1.833999872 11.515000343
166 1 0.0 14.027999878 4.126999855 13.898000717
167 1 0.0 11.68999958 0.916999936 14.692000389
168 1 0.0 9.352000237 3.210000038 17.075000763
169 1 0.0 7.013999939 0.0 17.868999481
170 1 0.0 14.027999878 5.501999855 19.457000732
171 1 0.0 11.689998627 2.292999983 20.250997543
172 1 0.0 9.352000237 4.585000038 22.634000778
173 1 0.0 14.027999878 1.376000047 23.428001404
174 1 0.0 11.68999958 3.667999744 25.811000824
175 1 0.0 9.352000237 0.458999991 26.604999542
176 1 0.0 14.027999878 2.750999928 28.986997604
177 1 0.0 11.689998627 5.044000149 31.370000839
178 1 0.0 9.352000237 1.833999872 32.164001465
179 1 0.0 14.027999878 4.126999855 34.546001434
180 1 0.0 11.68999958 0.916999936 35.340999603
181 1 0.0 9.352000237 3.210000038 37.722999573
182 1 0.0 7.013999939 0.0 38.516998291
183 1 0.0 14.027999878 5.501999855 40.105998993
184 1 0.0 11.689998627 2.292999983 40.900001526
185 1 0.0 9.352000237 4.585000038 43.282001495
186 1 0.0 14.027999878 1.376000047 44.076999664
187 1 0.0 11.68999958 3.667999744 46.458999634
188 1 0.0 9.352000237 0.458999991 47.252998352
189 1 0.0 14.027999878 2.750999928 49.636001587
190 1 0.0 14.027999878 0.688000023 0.0
191 1 0.0 11.68999958 2.980000019 2.382999897
192 1 0.0 9.352000237 5.272999763 4.764999866
193 1 0.0 14.027999878 2.062999964 5.559000492
194 1 0.0 11.68999958 4.35599947 7.941999912
195 1 0.0 9.351999283 1.146000028 8.736000061
196 1 0.0 14.028000832 3.438999891 11.118000984
197 1 0.0 11.689998627 0.229000002 11.913000107
198 1 0.0 11.689998627 5.730999947 13.501000404
199 1 0.0 9.35200119 2.522000074 14.295000076
200 1 0.0 14.027999878 4.81400013 16.677999496
201 1 0.0 11.68999958 1.605000019 17.472000122
202 1 0.0 9.352000237 3.896999836 19.854000092
203 1 0.0 14.027999878 0.688000023 20.648000717
204 1 0.0 11.68999958 2.980000019 23.031000137
205 1 0.0 9.352000237 5.272999763 25.413999557
206 1 0.0 14.027999878 2.062999964 26.208000183
207 1 0.0 11.68999958 4.35599947 28.590000153
208 1 0.0 9.351999283 1.146000028 29.384000778
209 1 0.0 14.028000832 3.438999891 31.767000198
210 1 0.0 11.689998627 0.229000002 32.561000824
211 1 0.0 11.689998627 5.730999947 34.14899826
212 1 0.0 9.35200119 2.522000074 34.944000244
213 1 0.0 14.027999878 4.81400013 37.326000214
214 1 0.0 11.68999958 1.605000019 38.119998932
215 1 0.0 9.352000237 3.896999836 40.502998352
216 1 0.0 14.027999878 0.688000023 41.2970047
217 1 0.0 11.68999958 2.980000019 43.67899704
218 1 0.0 9.352000237 5.272999763 46.062000275
219 1 0.0 14.027999878 2.062999964 46.856002808
220 1 0.0 11.68999958 4.35599947 49.238998413
221 1 0.0 14.028000832 3.438999891 0.79400003
222 1 0.0 11.689998627 0.229000002 1.588000059
223 1 0.0 11.689998627 5.730999947 3.177000046
224 1 0.0 9.35200119 2.522000074 3.970999956
225 1 0.0 14.027999878 4.81400013 6.353000641
226 1 0.0 11.68999958 1.605000019 7.147999763
227 1 0.0 9.352000237 3.896999836 9.529999733
228 1 0.0 14.027999878 0.688000023 10.324000359
229 1 0.0 11.68999958 2.980000019 12.706999779
230 1 0.0 9.352000237 5.272999763 15.088999748
231 1 0.0 14.027999878 2.062999964 15.883000374
232 1 0.0 11.68999958 4.35599947 18.266000748
233 1 0.0 9.351999283 1.146000028 19.059999466
234 1 0.0 14.028000832 3.438999891 21.443000793
235 1 0.0 11.689998627 0.229000002 22.236999512
236 1 0.0 11.689998627 5.730999947 23.825000763
237 1 0.0 9.35200119 2.522000074 24.618997574
238 1 0.0 14.027999878 4.81400013 27.002000809
239 1 0.0 11.68999958 1.605000019 27.796001434
240 1 0.0 9.352000237 3.896999836 30.179000854
241 1 0.0 14.027999878 0.688000023 30.972999573
242 1 0.0 11.68999958 2.980000019 33.354999542
243 1 0.0 9.352000237 5.272999763 35.737998962
244 1 0.0 14.027999878 2.062999964 36.532001495
245 1 0.0 11.68999958 4.35599947 38.914001465
246 1 0.0 9.351999283 1.146000028 39.708999634
247 1 0.0 14.028000832 3.438999891 42.090999603
248 1 0.0 11.689998627 0.229000002 42.884998322
249 1 0.0 11.689998627 5.730999947 44.473999023
250 1 0.0 9.35200119 2.522000074 45.268001556
251 1 0.0 14.027999878 4.81400013 47.650001526
252 1 0.0 11.68999958 1.605000019 48.444999695
253 1 0.0 7.013999462 11.00399971 0.397000015
254 1 0.0 4.675999641 7.794999599 1.190999985
255 1 0.0 9.352000237 10.086999893 3.573999882
256 1 0.0 7.013999939 6.877999783 4.368000031
257 1 0.0 4.675999641 9.170000076 6.75
258 1 0.0 16.365999222 5.960999966 7.545000076
259 1 0.0 9.352000237 11.463000298 9.133000374
260 1 0.0 7.013999939 8.253000259 9.927000046
261 1 0.0 4.676000118 10.545999527 12.31000042
262 1 0.0 9.352000237 7.335999489 13.104000092
263 1 0.0 7.013999939 9.62899971 15.486001015
264 1 0.0 4.675999641 6.418999672 16.281000137
265 1 0.0 9.352000237 8.71199894 18.663000107
266 1 0.0 7.013999462 11.00399971 21.045999527
267 1 0.0 4.675999641 7.794999599 21.840000153
268 1 0.0 9.352000237 10.086999893 24.222000122
269 1 0.0 7.013999939 6.877999783 25.016000748
270 1 0.0 4.675999641 9.170000076 27.399000168
271 1 0.0 16.365999222 5.960999966 28.193000793
272 1 0.0 9.352000237 11.463000298 29.781000137
273 1 0.0 7.013999939 8.253000259 30.576000214
274 1 0.0 4.676000118 10.545999527 32.958000183
275 1 0.0 9.352000237 7.335999489 33.751998901
276 1 0.0 7.013999939 9.62899971 36.134998322
277 1 0.0 4.675999641 6.418999672 36.929000854
278 1 0.0 9.352000237 8.71199894 39.312000275
279 1 0.0 7.013999462 11.00399971 41.694000244
280 1 0.0 4.675999641 7.794999599 42.488002777
281 1 0.0 9.352000237 10.086999893 44.870998383
282 1 0.0 7.013999939 6.877999783 45.66500473
283 1 0.0 4.675999641 9.170000076 48.04699707
284 1 0.0 16.365999222 5.960999966 48.841999054
285 1 0.0 4.676000118 10.545999527 1.984999895
286 1 0.0 9.352000237 7.335999489 2.779999971
287 1 0.0 7.013999939 9.62899971 5.162000179
288 1 0.0 4.675999641 6.418999672 5.955999851
289 1 0.0 9.352000237 8.71199894 8.338999748
290 1 0.0 7.013999462 11.00399971 10.720999718
291 1 0.0 4.675999641 7.794999599 11.515000343
292 1 0.0 9.352000237 10.086999893 13.898000717
293 1 0.0 7.013999939 6.877999783 14.692000389
294 1 0.0 4.675999641 9.170000076 17.075000763
295 1 0.0 16.365999222 5.960999966 17.868999481
296 1 0.0 9.352000237 11.463000298 19.457000732
297 1 0.0 7.013999939 8.253000259 20.250997543
298 1 0.0 4.676000118 10.545999527 22.634000778
299 1 0.0 9.352000237 7.335999489 23.428001404
300 1 0.0 7.013999939 9.62899971 25.811000824
301 1 0.0 4.675999641 6.418999672 26.604999542
302 1 0.0 9.352000237 8.71199894 28.986997604
303 1 0.0 7.013999462 11.00399971 31.370000839
304 1 0.0 4.675999641 7.794999599 32.164001465
305 1 0.0 9.352000237 10.086999893 34.546001434
306 1 0.0 7.013999939 6.877999783 35.340999603
307 1 0.0 4.675999641 9.170000076 37.722999573
308 1 0.0 16.365999222 5.960999966 38.516998291
309 1 0.0 9.352000237 11.463000298 40.105998993
310 1 0.0 7.013999939 8.253000259 40.900001526
311 1 0.0 4.676000118 10.545999527 43.282001495
312 1 0.0 9.352000237 7.335999489 44.076999664
313 1 0.0 7.013999939 9.62899971 46.458999634
314 1 0.0 4.675999641 6.418999672 47.252998352
315 1 0.0 9.352000237 8.71199894 49.636001587
316 1 0.0 9.352000237 6.647999763 0.0
317 1 0.0 7.013999939 8.940999985 2.382999897
318 1 0.0 4.675999641 11.234000206 4.764999866
319 1 0.0 9.352000237 8.024000168 5.559000492
320 1 0.0 7.013999939 10.317000389 7.941999912
321 1 0.0 4.675999641 7.106999874 8.736000061
322 1 0.0 9.352000237 9.399999619 11.118000984
323 1 0.0 7.013999939 6.190000057 11.913000107
324 1 0.0 7.013999462 11.692000389 13.501000404
325 1 0.0 4.675999641 8.482999802 14.295000076
326 1 0.0 9.352000237 10.774999619 16.677999496
327 1 0.0 7.013999939 7.565999985 17.472000122
328 1 0.0 4.675999641 9.857999802 19.854000092
329 1 0.0 9.352000237 6.647999763 20.648000717
330 1 0.0 7.013999939 8.940999985 23.031000137
331 1 0.0 4.675999641 11.234000206 25.413999557
332 1 0.0 9.352000237 8.024000168 26.208000183
333 1 0.0 7.013999939 10.317000389 28.590000153
334 1 0.0 4.675999641 7.106999874 29.384000778
335 1 0.0 9.352000237 9.399999619 31.767000198
336 1 0.0 7.013999939 6.190000057 32.561000824
337 1 0.0 7.013999462 11.692000389 34.14899826
338 1 0.0 4.675999641 8.482999802 34.944000244
339 1 0.0 9.352000237 10.774999619 37.326000214
340 1 0.0 7.013999939 7.565999985 38.119998932
341 1 0.0 4.675999641 9.857999802 40.502998352
342 1 0.0 9.352000237 6.647999763 41.2970047
343 1 0.0 7.013999939 8.940999985 43.67899704
344 1 0.0 4.675999641 11.234000206 46.062000275
345 1 0.0 9.352000237 8.024000168 46.856002808
346 1 0.0 7.013999939 10.317000389 49.238998413
347 1 0.0 9.352000237 9.399999619 0.79400003
348 1 0.0 7.013999939 6.190000057 1.588000059
349 1 0.0 7.013999462 11.692000389 3.177000046
350 1 0.0 4.675999641 8.482999802 3.970999956
351 1 0.0 9.352000237 10.774999619 6.353000641
352 1 0.0 7.013999939 7.565999985 7.147999763
353 1 0.0 4.675999641 9.857999802 9.529999733
354 1 0.0 9.352000237 6.647999763 10.324000359
355 1 0.0 7.013999939 8.940999985 12.706999779
356 1 0.0 4.675999641 11.234000206 15.088999748
357 1 0.0 9.352000237 8.024000168 15.883000374
358 1 0.0 7.013999939 10.317000389 18.266000748
359 1 0.0 4.675999641 7.106999874 19.059999466
360 1 0.0 9.352000237 9.399999619 21.443000793
361 1 0.0 7.013999939 6.190000057 22.236999512
362 1 0.0 7.013999462 11.692000389 23.825000763
363 1 0.0 4.675999641 8.482999802 24.618997574
364 1 0.0 9.352000237 10.774999619 27.002000809
365 1 0.0 7.013999939 7.565999985 27.796001434
366 1 0.0 4.675999641 9.857999802 30.179000854
367 1 0.0 9.352000237 6.647999763 30.972999573
368 1 0.0 7.013999939 8.940999985 33.354999542
369 1 0.0 4.675999641 11.234000206 35.737998962
370 1 0.0 9.352000237 8.024000168 36.532001495
371 1 0.0 7.013999939 10.317000389 38.914001465
372 1 0.0 4.675999641 7.106999874 39.708999634
373 1 0.0 9.352000237 9.399999619 42.090999603
374 1 0.0 7.013999939 6.190000057 42.884998322
375 1 0.0 7.013999462 11.692000389 44.473999023
376 1 0.0 4.675999641 8.482999802 45.268001556
377 1 0.0 9.352000237 10.774999619 47.650001526
378 1 0.0 7.013999939 7.565999985 48.444999695
379 1 0.0 14.027999878 11.00399971 0.397000015
380 1 0.0 11.689998627 7.794999599 1.190999985
381 1 0.0 16.365999222 10.086999893 3.573999882
382 1 0.0 14.027999878 6.877999783 4.368000031
383 1 0.0 11.689998627 9.170000076 6.75
384 1 0.0 9.352000237 5.960999966 7.545000076
385 1 0.0 16.365999222 11.463000298 9.133000374
386 1 0.0 14.027999878 8.253000259 9.927000046
387 1 0.0 11.68999958 10.545999527 12.31000042
388 1 0.0 16.365999222 7.335999489 13.104000092
389 1 0.0 14.027998924 9.62899971 15.486001015
390 1 0.0 11.689998627 6.418999672 16.281000137
391 1 0.0 16.365999222 8.71199894 18.663000107
392 1 0.0 14.027999878 11.00399971 21.045999527
393 1 0.0 11.689998627 7.794999599 21.840000153
394 1 0.0 16.365999222 10.086999893 24.222000122
395 1 0.0 14.027999878 6.877999783 25.016000748
396 1 0.0 11.689998627 9.170000076 27.399000168
397 1 0.0 9.352000237 5.960999966 28.193000793
398 1 0.0 16.365999222 11.463000298 29.781000137
399 1 0.0 14.027999878 8.253000259 30.576000214
400 1 0.0 11.68999958 10.545999527 32.958000183
401 1 0.0 16.365999222 7.335999489 33.751998901
402 1 0.0 14.027998924 9.62899971 36.134998322
403 1 0.0 11.689998627 6.418999672 36.929000854
404 1 0.0 16.365999222 8.71199894 39.312000275
405 1 0.0 14.027999878 11.00399971 41.694000244
406 1 0.0 11.689998627 7.794999599 42.488002777
407 1 0.0 16.365999222 10.086999893 44.870998383
408 1 0.0 14.027999878 6.877999783 45.66500473
409 1 0.0 11.689998627 9.170000076 48.04699707
410 1 0.0 9.352000237 5.960999966 48.841999054
411 1 0.0 11.68999958 10.545999527 1.984999895
412 1 0.0 16.365999222 7.335999489 2.779999971
413 1 0.0 14.027998924 9.62899971 5.162000179
414 1 0.0 11.689998627 6.418999672 5.955999851
415 1 0.0 16.365999222 8.71199894 8.338999748
416 1 0.0 14.027999878 11.00399971 10.720999718
417 1 0.0 11.689998627 7.794999599 11.515000343
418 1 0.0 16.365999222 10.086999893 13.898000717
419 1 0.0 14.027999878 6.877999783 14.692000389
420 1 0.0 11.689998627 9.170000076 17.075000763
421 1 0.0 9.352000237 5.960999966 17.868999481
422 1 0.0 16.365999222 11.463000298 19.457000732
423 1 0.0 14.027999878 8.253000259 20.250997543
424 1 0.0 11.68999958 10.545999527 22.634000778
425 1 0.0 16.365999222 7.335999489 23.428001404
426 1 0.0 14.027998924 9.62899971 25.811000824
427 1 0.0 11.689998627 6.418999672 26.604999542
428 1 0.0 16.365999222 8.71199894 28.986997604
429 1 0.0 14.027999878 11.00399971 31.370000839
430 1 0.0 11.689998627 7.794999599 32.164001465
431 1 0.0 16.365999222 10.086999893 34.546001434
432 1 0.0 14.027999878 6.877999783 35.340999603
433 1 0.0 11.689998627 9.170000076 37.722999573
434 1 0.0 9.352000237 5.960999966 38.516998291
435 1 0.0 16.365999222 11.463000298 40.105998993
436 1 0.0 14.027999878 8.253000259 40.900001526
437 1 0.0 11.68999958 10.545999527 43.282001495
438 1 0.0 16.365999222 7.335999489 44.076999664
439 1 0.0 14.027998924 9.62899971 46.458999634
440 1 0.0 11.689998627 6.418999672 47.252998352
441 1 0.0 16.365999222 8.71199894 49.636001587
442 1 0.0 16.365999222 6.647999763 0.0
443 1 0.0 14.027999878 8.940999985 2.382999897
444 1 0.0 11.689998627 11.234000206 4.764999866
445 1 0.0 16.365999222 8.024000168 5.559000492
446 1 0.0 14.027999878 10.317000389 7.941999912
447 1 0.0 11.690000534 7.106999874 8.736000061
448 1 0.0 16.365999222 9.399999619 11.118000984
449 1 0.0 14.027999878 6.190000057 11.913000107
450 1 0.0 14.027999878 11.692000389 13.501000404
451 1 0.0 11.689998627 8.482999802 14.295000076
452 1 0.0 16.365999222 10.774999619 16.677999496
453 1 0.0 14.027999878 7.565999985 17.472000122
454 1 0.0 11.68999958 9.857999802 19.854000092
455 1 0.0 16.365999222 6.647999763 20.648000717
456 1 0.0 14.027999878 8.940999985 23.031000137
457 1 0.0 11.689998627 11.234000206 25.413999557
458 1 0.0 16.365999222 8.024000168 26.208000183
459 1 0.0 14.027999878 10.317000389 28.590000153
460 1 0.0 11.690000534 7.106999874 29.384000778
461 1 0.0 16.365999222 9.399999619 31.767000198
462 1 0.0 14.027999878 6.190000057 32.561000824
463 1 0.0 14.027999878 11.692000389 34.14899826
464 1 0.0 11.689998627 8.482999802 34.944000244
465 1 0.0 16.365999222 10.774999619 37.326000214
466 1 0.0 14.027999878 7.565999985 38.119998932
467 1 0.0 11.68999958 9.857999802 40.502998352
468 1 0.0 16.365999222 6.647999763 41.2970047
469 1 0.0 14.027999878 8.940999985 43.67899704
470 1 0.0 11.689998627 11.234000206 46.062000275
471 1 0.0 16.365999222 8.024000168 46.856002808
472 1 0.0 14.027999878 10.317000389 49.238998413
473 1 0.0 16.365999222 9.399999619 0.79400003
474 1 0.0 14.027999878 6.190000057 1.588000059
475 1 0.0 14.027999878 11.692000389 3.177000046
476 1 0.0 11.689998627 8.482999802 3.970999956
477 1 0.0 16.365999222 10.774999619 6.353000641
478 1 0.0 14.027999878 7.565999985 7.147999763
479 1 0.0 11.68999958 9.857999802 9.529999733
480 1 0.0 16.365999222 6.647999763 10.324000359
481 1 0.0 14.027999878 8.940999985 12.706999779
482 1 0.0 11.689998627 11.234000206 15.088999748
483 1 0.0 16.365999222 8.024000168 15.883000374
484 1 0.0 14.027999878 10.317000389 18.266000748
485 1 0.0 11.690000534 7.106999874 19.059999466
486 1 0.0 16.365999222 9.399999619 21.443000793
487 1 0.0 14.027999878 6.190000057 22.236999512
488 1 0.0 14.027999878 11.692000389 23.825000763
489 1 0.0 11.689998627 8.482999802 24.618997574
490 1 0.0 16.365999222 10.774999619 27.002000809
491 1 0.0 14.027999878 7.565999985 27.796001434
492 1 0.0 11.68999958 9.857999802 30.179000854
493 1 0.0 16.365999222 6.647999763 30.972999573
494 1 0.0 14.027999878 8.940999985 33.354999542
495 1 0.0 11.689998627 11.234000206 35.737998962
496 1 0.0 16.365999222 8.024000168 36.532001495
497 1 0.0 14.027999878 10.317000389 38.914001465
498 1 0.0 11.690000534 7.106999874 39.708999634
499 1 0.0 16.365999222 9.399999619 42.090999603
500 1 0.0 14.027999878 6.190000057 42.884998322
501 1 0.0 14.027999878 11.692000389 44.473999023
502 1 0.0 11.689998627 8.482999802 45.268001556
503 1 0.0 16.365999222 10.774999619 47.650001526
504 1 0.0 14.027999878 7.565999985 48.444999695
