# LAMMPS data file written by Ovito Basic 3.0.0-dev791
170 atoms
2 atom types
0.0 16.7632923126 xlo xhi
0.0 9.6782903671 ylo yhi
0.0 46.0615158081 zlo zhi

Atoms  # charge

1 1 0.0 1.396941066 2.41957283 29.661647797
2 1 0.0 1.396941066 7.258717537 29.661647797
3 1 0.0 4.190823078 2.41957283 29.661647797
4 1 0.0 4.190823078 7.258717537 29.661647797
5 1 0.0 6.984705448 2.41957283 29.661647797
6 1 0.0 6.984705448 7.258717537 29.661647797
7 1 0.0 9.778586388 2.41957283 29.661647797
8 1 0.0 9.778586388 7.258717537 29.661647797
9 1 0.0 12.572469711 2.41957283 29.661647797
10 1 0.0 12.572469711 7.258717537 29.661647797
11 1 0.0 15.366350174 2.41957283 29.661647797
12 1 0.0 15.366350174 7.258717537 29.661647797
13 1 0.0 0.0 4.83914566 29.661647797
14 1 0.0 0.0 0.0 29.661647797
15 1 0.0 2.793882132 4.83914566 29.661647797
16 1 0.0 2.793882132 0.0 29.661647797
17 1 0.0 5.587764263 4.83914566 29.661647797
18 1 0.0 5.587764263 0.0 29.661647797
19 1 0.0 8.381646156 4.83914566 29.661647797
20 1 0.0 8.381646156 0.0 29.661647797
21 1 0.0 11.175528526 4.83914566 29.661647797
22 1 0.0 11.175528526 0.0 29.661647797
23 1 0.0 13.969409943 4.83914566 29.661647797
24 1 0.0 13.969409943 0.0 29.661647797
25 1 0.0 1.396939039 4.032621861 25.0930233
26 1 0.0 1.396939039 8.871767044 25.0930233
27 1 0.0 4.190821171 4.032621861 25.0930233
28 1 0.0 4.190821171 8.871767044 25.0930233
29 1 0.0 6.984703541 4.032621861 25.0930233
30 1 0.0 6.984703541 8.871767044 25.0930233
31 1 0.0 9.77858448 4.032621861 25.0930233
32 1 0.0 9.77858448 8.871767044 25.0930233
33 1 0.0 12.57246685 4.032621861 25.0930233
34 1 0.0 12.57246685 8.871767044 25.0930233
35 1 0.0 15.366348267 4.032621861 25.0930233
36 1 0.0 15.366348267 8.871767044 25.0930233
37 1 0.0 2.793880224 1.61304903 25.0930233
38 1 0.0 2.793880224 6.452194214 25.0930233
39 1 0.0 5.587762356 1.61304903 25.0930233
40 1 0.0 5.587762356 6.452194214 25.0930233
41 1 0.0 8.381644249 1.61304903 25.0930233
42 1 0.0 8.381644249 6.452194214 25.0930233
43 1 0.0 11.175526619 1.61304903 25.0930233
44 1 0.0 11.175526619 6.452194214 25.0930233
45 1 0.0 13.969408989 1.61304903 25.0930233
46 1 0.0 13.969408989 6.452194214 25.0930233
47 1 0.0 0.0 1.61304903 25.0930233
48 1 0.0 0.0 6.452194214 25.0930233
49 1 0.0 2.793883324 3.226095676 27.368566513
50 1 0.0 2.793883324 8.06524086 27.368566513
51 1 0.0 5.587765694 3.226095676 27.368566513
52 1 0.0 5.587765694 8.06524086 27.368566513
53 1 0.0 8.381648064 3.226095676 27.368566513
54 1 0.0 8.381648064 8.06524086 27.368566513
55 1 0.0 11.17552948 3.226095676 27.368566513
56 1 0.0 11.17552948 8.06524086 27.368566513
57 1 0.0 13.96941185 3.226095676 27.368566513
58 1 0.0 13.96941185 8.06524086 27.368566513
59 1 0.0 0.0 3.226095676 27.368566513
60 1 0.0 0.0 8.06524086 27.368566513
61 1 0.0 1.396942019 0.806523025 27.368566513
62 1 0.0 1.396942019 5.64566803 27.368566513
63 1 0.0 4.190824032 0.806523025 27.368566513
64 1 0.0 4.190824032 5.64566803 27.368566513
65 1 0.0 6.984706402 0.806523025 27.368566513
66 1 0.0 6.984706402 5.64566803 27.368566513
67 1 0.0 9.778588295 0.806523025 27.368566513
68 1 0.0 9.778588295 5.64566803 27.368566513
69 1 0.0 12.572470665 0.806523025 27.368566513
70 1 0.0 12.572470665 5.64566803 27.368566513
71 1 0.0 15.366352081 0.806523025 27.368566513
72 1 0.0 15.366352081 5.64566803 27.368566513
73 1 0.0 1.396941066 2.41957283 22.813365936
74 1 0.0 1.396941066 7.258717537 22.813365936
75 1 0.0 4.190823078 2.41957283 22.813365936
76 1 0.0 4.190823078 7.258717537 22.813365936
77 1 0.0 6.984705448 2.41957283 22.813365936
78 1 0.0 6.984705448 7.258717537 22.813365936
79 1 0.0 9.778586388 2.41957283 22.813365936
80 1 0.0 9.778586388 7.258717537 22.813365936
81 1 0.0 12.572469711 2.41957283 22.813365936
82 1 0.0 12.572469711 7.258717537 22.813365936
83 1 0.0 15.366350174 2.41957283 22.813365936
84 1 0.0 15.366350174 7.258717537 22.813365936
85 1 0.0 0.0 4.83914566 22.813365936
86 1 0.0 0.0 0.0 22.813365936
87 1 0.0 2.793882132 4.83914566 22.813365936
88 1 0.0 2.793882132 0.0 22.813365936
89 1 0.0 5.587764263 4.83914566 22.813365936
90 1 0.0 5.587764263 0.0 22.813365936
91 1 0.0 8.381646156 4.83914566 22.813365936
92 1 0.0 8.381646156 0.0 22.813365936
93 1 0.0 11.175528526 4.83914566 22.813365936
94 1 0.0 11.175528526 0.0 22.813365936
95 1 0.0 13.969409943 4.83914566 22.813365936
96 1 0.0 13.969409943 0.0 22.813365936
97 1 0.0 1.396939039 4.032621861 18.248147964
98 1 0.0 1.396939039 8.871767044 18.248147964
99 1 0.0 4.190821171 4.032621861 18.248147964
100 1 0.0 4.190821171 8.871767044 18.248147964
101 1 0.0 6.984703541 4.032621861 18.248147964
102 1 0.0 6.984703541 8.871767044 18.248147964
103 1 0.0 9.77858448 4.032621861 18.248147964
104 1 0.0 9.77858448 8.871767044 18.248147964
105 1 0.0 12.57246685 4.032621861 18.248147964
106 1 0.0 12.57246685 8.871767044 18.248147964
107 1 0.0 15.366348267 4.032621861 18.248147964
108 1 0.0 15.366348267 8.871767044 18.248147964
109 1 0.0 2.793880224 1.61304903 18.248147964
110 1 0.0 2.793880224 6.452194214 18.248147964
111 1 0.0 5.587762356 1.61304903 18.248147964
112 1 0.0 5.587762356 6.452194214 18.248147964
113 1 0.0 8.381644249 1.61304903 18.248147964
114 1 0.0 8.381644249 6.452194214 18.248147964
115 1 0.0 11.175526619 1.61304903 18.248147964
116 1 0.0 11.175526619 6.452194214 18.248147964
117 1 0.0 13.969408989 1.61304903 18.248147964
118 1 0.0 13.969408989 6.452194214 18.248147964
119 1 0.0 0.0 1.61304903 18.248147964
120 1 0.0 0.0 6.452194214 18.248147964
121 1 0.0 2.793883324 3.226095676 20.530757904
122 1 0.0 2.793883324 8.06524086 20.530757904
123 1 0.0 5.587765694 3.226095676 20.530757904
124 1 0.0 5.587765694 8.06524086 20.530757904
125 1 0.0 8.381648064 3.226095676 20.530757904
126 1 0.0 8.381648064 8.06524086 20.530757904
127 1 0.0 11.17552948 3.226095676 20.530757904
128 1 0.0 11.17552948 8.06524086 20.530757904
129 1 0.0 13.96941185 3.226095676 20.530757904
130 1 0.0 13.96941185 8.06524086 20.530757904
131 1 0.0 0.0 3.226095676 20.530757904
132 1 0.0 0.0 8.06524086 20.530757904
133 1 0.0 1.396942019 0.806523025 20.530757904
134 1 0.0 1.396942019 5.64566803 20.530757904
135 1 0.0 4.190824032 0.806523025 20.530757904
136 1 0.0 4.190824032 5.64566803 20.530757904
137 1 0.0 6.984706402 0.806523025 20.530757904
138 1 0.0 6.984706402 5.64566803 20.530757904
139 1 0.0 9.778588295 0.806523025 20.530757904
140 1 0.0 9.778588295 5.64566803 20.530757904
141 1 0.0 12.572470665 0.806523025 20.530757904
142 1 0.0 12.572470665 5.64566803 20.530757904
143 1 0.0 15.366352081 0.806523025 20.530757904
144 1 0.0 15.366352081 5.64566803 20.530757904
145 1 0.0 1.396941066 2.41957283 15.968494415
146 1 0.0 1.396941066 7.258717537 15.968494415
147 1 0.0 4.190823078 2.41957283 15.968494415
148 1 0.0 4.190823078 7.258717537 15.968494415
149 1 0.0 6.984705448 2.41957283 15.968494415
150 1 0.0 6.984705448 7.258717537 15.968494415
151 1 0.0 9.778586388 2.41957283 15.968494415
152 1 0.0 9.778586388 7.258717537 15.968494415
153 1 0.0 12.572469711 2.41957283 15.968494415
154 1 0.0 12.572469711 7.258717537 15.968494415
155 1 0.0 15.366350174 2.41957283 15.968494415
156 1 0.0 15.366350174 7.258717537 15.968494415
157 1 0.0 0.0 4.83914566 15.968494415
158 1 0.0 0.0 0.0 15.968494415
159 1 0.0 2.793882132 4.83914566 15.968494415
160 1 0.0 2.793882132 0.0 15.968494415
161 1 0.0 5.587764263 4.83914566 15.968494415
162 1 0.0 5.587764263 0.0 15.968494415
163 1 0.0 8.381646156 4.83914566 15.968494415
164 1 0.0 8.381646156 0.0 15.968494415
165 1 0.0 11.175528526 4.83914566 15.968494415
166 1 0.0 11.175528526 0.0 15.968494415
167 1 0.0 13.969409943 4.83914566 15.968494415
168 1 0.0 13.969409943 0.0 15.968494415
169 2 0.0 7.8307081803 4.5604332326 33.9047603896
170 2 0.0 8.4325855207 4.561997687 33.5319263519
