#Input file for lammps
 
848 atoms
3 atom types
 
0.0 110.567 xlo xhi
0.0 110.567 ylo yhi
0.0 110.567 zlo zhi
 
Masses
 
1 12
2 14
3 1.008
 
Atoms
 
      1 1 0      66.2132      62.0579      74.0515
      2 1 0      66.1059       63.221      74.8227
      3 1 0      65.1563      64.2102       74.418
      4 2 0      64.3672      64.0987      73.3564
      5 3 0      66.9117       61.283      74.3124
      6 3 0      66.7224       63.368      75.6986
      7 3 0      65.0388      65.1328      74.9897
      8 1 0      65.4398      60.7724      72.0971
      9 1 0      65.3644      61.9287      72.9023
     10 1 0      64.4078      63.0097      72.5604
     11 2 0      63.6195      62.8771      71.4834
     12 3 0      66.1253      59.9801      72.3284
     13 1 0       64.627      59.5545      70.1465
     14 1 0      64.5836      60.6925      70.9771
     15 1 0      63.6434      61.8025      70.6779
     16 2 0      62.8409      61.7017      69.6081
     17 3 0      65.3014      58.7459      70.3515
     18 1 0      63.7678      58.3924      68.1819
     19 1 0      63.7576      59.5114      69.0389
     20 1 0      62.8345      60.6452      68.7792
     21 2 0       62.015      60.5834      67.7187
     22 3 0      64.4301      57.5675      68.3593
     23 1 0      62.8574       57.291      66.2013
     24 1 0       62.883      58.3887      67.0859
     25 1 0      61.9779      59.5459      66.8668
     26 2 0      61.1419      59.5257      65.8181
     27 3 0      63.5061      56.4497      66.3492
     28 1 0      61.8931      56.2548      64.2047
     29 1 0      61.9569      57.3285      65.1178
     30 1 0      61.0724      58.5095      64.9427
     31 2 0      60.2197      58.5339      63.9081
     32 3 0      62.5264      55.3971      64.3207
     33 1 0      60.8706      55.2911      62.1926
     34 1 0      60.9766      56.3367      63.1359
     35 1 0      60.1155       57.542      63.0086
     36 2 0       59.246      57.6151      61.9912
     37 3 0      61.4861      54.4164      62.2734
     38 1 0      59.7837      54.4113      60.1661
     39 1 0      59.9375      55.4223      61.1416
     40 1 0      59.1033      56.6522      61.0666
     41 2 0      58.2162      56.7808      60.0705
     42 3 0      60.3772      53.5186      60.2057
     43 1 0      58.6275      53.6296      58.1301
     44 1 0       58.833      54.5999      59.1379
     45 1 0      58.0296      55.8533      59.1193
     46 2 0      57.1249      56.0429      58.1487
     47 3 0      59.1948      52.7191      58.1237
     48 1 0      57.4039      52.9548       56.094
     49 1 0        57.66      53.8816      57.1306
     50 1 0      56.8908      55.1563      57.1706
     51 2 0      55.9705      55.4068      56.2282
     52 3 0      57.9438      52.0293      56.0419
     53 1 0      56.1194      52.3868      54.0656
     54 1 0      56.4224      53.2703      55.1264
     55 1 0      55.6897      54.5628      55.2254
     56 2 0      54.7569      54.8704       54.312
     57 3 0      56.6325      51.4496      53.9713
     58 1 0        54.78      51.9215      52.0491
     59 1 0      55.1273      52.7617       53.131
     60 1 0      54.4321      54.0687      53.2877
     61 2 0      53.4898        54.43      52.4041
     62 3 0      55.2664      50.9752      51.9148
     63 1 0      53.3892       51.557      50.0476
     64 1 0      53.7797      52.3525      51.1482
     65 1 0      53.1231       53.671      51.3614
     66 2 0      52.1734      54.0843      50.5091
     67 3 0      53.8481      50.6034      49.8736
     68 1 0      51.9498      51.2933      48.0641
     69 1 0      52.3831      52.0421      49.1813
     70 1 0      51.7661      53.3693      49.4503
     71 2 0       50.811      53.8339      48.6312
     72 3 0      52.3799      50.3343      47.8505
     73 1 0      50.4645      51.1309      46.1028
     74 1 0      50.9398      51.8314      47.2344
     75 1 0      50.3638      53.1644      47.5585
     76 2 0      49.4052      53.6795      46.7743
     77 3 0      50.8647      50.1687      45.8497
     78 1 0      48.9366      51.0704      44.1681
     79 1 0      49.4529      51.7211      45.3116
     80 1 0      48.9191      53.0573      45.6903
     81 2 0      47.9592      53.6219      44.9429
     82 3 0      49.3058      50.1069      43.8756
     83 1 0      47.3695      51.1118       42.264
     84 1 0      47.9254      51.7116      43.4169
     85 1 0      47.4353       53.048      43.8497
     86 2 0      46.4759      53.6612      43.1407
     87 3 0      47.7069      50.1492      41.9329
     88 1 0      45.7668      51.2551      40.3951
     89 1 0       46.361      51.8028      41.5548
     90 1 0      45.9154      53.1366      42.0407
     91 2 0      44.9588      53.7972       41.372
     92 3 0      46.0717      50.2954      40.0261
     93 1 0      44.1322      51.4998      38.5657
     94 1 0      44.7632      51.9946      39.7297
     95 1 0      44.3632      53.3231      40.2677
     96 2 0      43.4113      54.0298      39.6408
     97 3 0      44.4039      50.5451      38.1596
     98 1 0      42.4695      51.8454      36.7798
     99 1 0      43.1357      52.2864      37.9456
    100 1 0      42.7819      53.6067      38.5343
    101 2 0      41.8369      54.3582      37.9506
    102 3 0      42.7077      50.8978      36.3377
    103 1 0      41.4822      52.6776      36.2066
    104 1 0      41.1752      53.9869      36.8446
    105 3 0      40.9477      52.3706      35.3076
    106 3 0      40.4167      54.6429      36.4172
    107 1 0      10.2066      59.4966      3.63013
    108 1 0      10.4957      60.3996      2.60046
    109 1 0      11.3635      61.4974      2.89347
    110 2 0      11.9151       61.718      4.08069
    111 3 0      9.55973      58.6541      3.46241
    112 3 0      10.0757      60.2716      1.61247
    113 3 0      11.6163      62.2261      2.12089
    114 1 0      10.5335      58.8414      5.98263
    115 1 0      10.7982      59.7271      4.91655
    116 1 0      11.6877      60.8955      5.12621
    117 2 0      12.2348      61.1002      6.33357
    118 3 0      9.89286      57.9911      5.85018
    119 1 0      10.9011      58.2514      8.32051
    120 1 0      11.1393      59.1113       7.2292
    121 1 0      12.0223      60.2949      7.38731
    122 2 0      12.5854      60.5286       8.5819
    123 3 0      10.2655      57.3933      8.21956
    124 1 0      11.3125      57.7207      10.6651
    125 1 0      11.5232      58.5536      9.54776
    126 1 0      12.3981      59.7483      9.65861
    127 2 0      12.9806      60.0174      10.8368
    128 3 0      10.6828       56.855      10.5972
    129 1 0      11.7721      57.2545       13.018
    130 1 0       11.953      58.0579      11.8735
    131 1 0       12.819       59.263      11.9361
    132 2 0      13.4211      59.5693      13.0948
    133 3 0      11.1491      56.3819      12.9851
    134 1 0      12.2825      56.8573      15.3785
    135 1 0      12.4314      57.6283      14.2062
    136 1 0      13.2868      58.8431      14.2166
    137 2 0      13.9091      59.1888       15.353
    138 3 0      11.6678      55.9785      15.3832
    139 1 0      12.8482      56.5362      17.7448
    140 1 0      12.9615      57.2702      16.5436
    141 1 0      13.8043       58.494      16.4976
    142 2 0      14.4477      58.8823      17.6075
    143 3 0      12.2434      55.6517       17.791
    144 1 0       13.476      56.3021      20.1141
    145 1 0      13.5482       56.992      18.8827
    146 1 0      14.3761      58.2238      18.7752
    147 2 0      15.0422      58.6599      19.8531
    148 3 0      12.8837      55.4126      20.2084
    149 1 0      14.1716      56.1671      22.4786
    150 1 0      14.1991      56.8071      21.2179
    151 1 0      15.0089      58.0444      21.0447
    152 2 0      15.6989      58.5325       22.085
    153 3 0      13.5952      55.2746      22.6264
    154 1 0      14.9356      56.1374      24.8267
    155 1 0      14.9184      56.7256      23.5411
    156 1 0      15.7074      57.9656      23.2999
    157 2 0      16.4197      58.5048      24.2997
    158 3 0      14.3763      55.2443      25.0271
    159 1 0      15.7632      56.2102      27.1498
    160 1 0      15.7041      56.7483      25.8442
    161 1 0      16.4699      57.9874      25.5354
    162 2 0      17.2016      58.5738      26.4944
    163 3 0      15.2211      55.3187      27.3986
    164 1 0      16.6491      56.3802      29.4439
    165 1 0      16.5501      56.8691      28.1218
    166 1 0      17.2913      58.1046      27.7471
    167 2 0      18.0398      58.7344      28.6649
    168 3 0      16.1247      55.4921      29.7382
    169 1 0      17.5906      56.6445       31.706
    170 1 0      17.4522      57.0838      30.3702
    171 1 0      18.1675      58.3129      29.9314
    172 2 0      18.9307      58.9841      30.8066
    173 3 0      17.0848      55.7616      32.0451
    174 1 0      18.5856      57.0022      33.9325
    175 1 0      18.4077      57.3905      32.5856
    176 1 0      19.0959      58.6108       32.084
    177 2 0      19.8724      59.3221      32.9149
    178 3 0      18.0998      56.1265      34.3162
    179 1 0      19.6324      57.4526       36.119
    180 1 0      19.4152      57.7889      34.7637
    181 1 0      20.0748      58.9979      34.2004
    182 2 0       20.863      59.7479       34.985
    183 3 0      19.1675       56.586      36.5467
    184 1 0      20.7284      57.9949      38.2605
    185 1 0      20.4726      58.2786      36.8998
    186 1 0      21.1021      59.4736      36.2759
    187 2 0      21.9003      60.2608      37.0122
    188 3 0      20.2858      57.1392      38.7317
    189 1 0      21.8714      58.6277      40.3524
    190 1 0      21.5776      58.8585      38.9892
    191 1 0      22.1756      60.0369      38.3057
    192 2 0      22.9822      60.8599      38.9921
    193 3 0       21.452      57.7849      40.8661
    194 1 0      23.0587      59.3497      42.3898
    195 1 0      22.7277      59.5272      41.0271
    196 1 0      23.2929      60.6866      40.2854
    197 2 0      24.1061      61.5436      40.9203
    198 3 0      22.6635      58.5215      42.9448
    199 1 0      24.2876      60.1591       44.368
    200 1 0      23.9203      60.2832      43.0087
    201 1 0      24.4515      61.4212      42.2105
    202 2 0      25.2696      62.3105      42.7922
    203 3 0      23.9172      59.3474      44.9631
    204 1 0      25.5552      61.0541      46.2827
    205 1 0      25.1526      61.1248      44.9297
    206 1 0      25.6488      62.2389      44.0768
    207 2 0      26.4701      63.1588      44.6039
    208 3 0      25.2104      60.2605      46.9163
    209 1 0      26.4217        62.05      46.7857
    210 1 0      26.8821       63.138      45.8802
    211 3 0      26.7533       62.028      47.8238
    212 3 0      27.5508      63.9155      46.2498
    213 1 0      101.415      58.2041      75.0347
    214 1 0      102.633      57.5188      74.9624
    215 1 0      103.777      58.1145      75.5798
    216 2 0       103.76      59.2779      76.2191
    217 3 0      100.525      57.7997       74.587
    218 3 0      102.708      56.5671       74.455
    219 3 0      104.748      57.6155      75.5482
    220 1 0       100.18      60.1862      75.8201
    221 1 0      101.388      59.4621      75.7236
    222 1 0      102.627      60.0017       76.334
    223 2 0      102.589       61.179      76.9754
    224 3 0      99.2738      59.8122       75.385
    225 1 0      99.0205      62.1741      76.6275
    226 1 0      100.205       61.419      76.5081
    227 1 0      101.472      61.9155      77.1018
    228 2 0      101.468      63.0895      77.7501
    229 3 0      98.0985      61.8269      76.2034
    230 1 0      97.9244      64.1857      77.4641
    231 1 0      99.0848      63.3986      77.3209
    232 1 0      100.375      63.8546      77.8979
    233 2 0      100.413       65.024      78.5544
    234 3 0      96.9869      63.8668      77.0517
    235 1 0      96.8974      66.2242       78.333
    236 1 0      98.0314      65.4033      78.1644
    237 1 0      99.3434      65.8176      78.7239
    238 2 0      99.4272        66.98      79.3878
    239 3 0      95.9447      65.9356      77.9335
    240 1 0      95.9448        68.29      79.2357
    241 1 0      97.0491      67.4338      79.0401
    242 1 0      98.3832      67.8028      79.5801
    243 2 0      98.5152      68.9562      80.2512
    244 3 0       94.977      68.0344      78.8506
    245 1 0      95.0746      70.3838      80.1745
    246 1 0      96.1444      69.4899      79.9495
    247 1 0      97.5008      69.8093      80.4676
    248 2 0      97.6855      70.9508      81.1454
    249 3 0      94.0914      70.1649      79.8059
    250 1 0      94.2993       72.506      81.1531
    251 1 0      95.3274      71.5711      80.8948
    252 1 0      96.7059      71.8361      81.3884
    253 2 0      96.9502      72.9621      82.0727
    254 3 0      93.3002      72.3302      80.8043
    255 1 0      93.6343      74.6531      82.1731
    256 1 0      94.6137      73.6764      81.8795
    257 1 0      96.0128      73.8822      82.3455
    258 2 0      96.3225      74.9888      83.0355
    259 3 0      92.6202      74.5259      81.8474
    260 1 0      93.0886      76.8163      83.2321
    261 1 0      94.0165      75.8012      82.9043
    262 1 0      95.4333      75.9449      83.3404
    263 2 0      95.8081      77.0292      84.0344
    264 3 0      92.0623      76.7375      82.9301
    265 1 0      92.6611      78.9866      84.3247
    266 1 0      93.5383      77.9381      83.9657
    267 1 0      94.9689       78.019      84.3706
    268 2 0      95.4044      79.0795      85.0668
    269 3 0       91.626      78.9529      84.0456
    270 1 0      92.3468      81.1588       85.447
    271 1 0      93.1736      80.0806      85.0588
    272 1 0      94.6147      80.0994       85.432
    273 2 0      95.1069      81.1347      86.1285
    274 3 0      91.3056      81.1683      85.1901
    275 1 0      92.1434      83.3293      86.5962
    276 1 0      92.9185      82.2237      86.1798
    277 1 0      94.3665      82.1815       86.521
    278 2 0      94.9137      83.1896      87.2163
    279 3 0      91.0981      83.3819      86.3621
    280 1 0      92.0504      85.4946      87.7703
    281 1 0      92.7719      84.3636      87.3264
    282 1 0       94.224      84.2607      87.6351
    283 2 0      94.8249      85.2396      88.3277
    284 3 0      91.0032      85.5904      87.5597
    285 1 0      92.0683      87.6502       88.967
    286 1 0      92.7344      86.4962      88.4964
    287 1 0      94.1874      86.3328      88.7718
    288 2 0       94.841      87.2803      89.4605
    289 3 0      91.0214      87.7895      88.7805
    290 1 0      92.1969      89.7914      90.1836
    291 1 0      92.8063      88.6168      89.6873
    292 1 0      94.2573      88.3932       89.929
    293 2 0      94.9624      89.3071      90.6119
    294 3 0      91.1527      89.9742      90.0217
    295 1 0      92.4361      91.9136      91.4174
    296 1 0      92.9878      90.7209      90.8967
    297 1 0      94.4335      90.4373      91.1038
    298 2 0      95.1889      91.3157      91.7798
    299 3 0      91.3966      92.1394      91.2806
    300 1 0      92.7852      94.0116      92.6657
    301 1 0      93.2782      92.8037      92.1217
    302 1 0      94.7157      92.4607      92.2939
    303 2 0      95.5198      93.3014      92.9613
    304 3 0      91.7529        94.28      92.5542
    305 1 0      93.2434      96.0809      93.9254
    306 1 0      93.6769      94.8603      93.3595
    307 1 0      95.1032      94.4586      93.4964
    308 2 0      95.9545      95.2597      94.1538
    309 3 0      92.2205      96.3912      93.8395
    310 1 0      93.8097      98.1166      95.1938
    311 1 0      94.1831      96.8861      94.6073
    312 1 0       95.595      96.4268      94.7087
    313 2 0      96.4919      97.1865      95.3547
    314 3 0      92.7982      98.4679      95.1335
    315 1 0      94.7953      98.8764      95.8622
    316 1 0      96.1902      98.3608      95.9282
    317 3 0      94.5443      99.8301      96.3265
    318 3 0      96.9646      98.9326      96.4394
    319 1 0      9.25815      3.78301      63.4046
    320 1 0      9.40296       4.1848      62.0716
    321 1 0      9.76551      5.54376      61.8151
    322 2 0      9.97459       6.4527      62.7598
    323 3 0      8.98681      2.77226      63.6519
    324 3 0      9.24553      3.48885      61.2594
    325 3 0       9.8894      5.90088      60.7909
    326 1 0      9.34691      4.39613      65.7892
    327 1 0      9.48215      4.75854      64.4323
    328 1 0      9.85569      6.14739       64.069
    329 2 0      10.0625      7.05033      65.0389
    330 3 0       9.0775      3.39673      66.0714
    331 1 0      9.45333      5.07192      68.1304
    332 1 0      9.57783      5.39202      66.7632
    333 1 0      9.94969       6.7684      66.3473
    334 2 0      10.1636      7.69565      67.2924
    335 3 0      9.18537      4.08174       68.444
    336 1 0      9.57821      5.81588      70.4496
    337 1 0      9.69154      6.09207      69.0722
    338 1 0       10.061      7.45384      68.6093
    339 2 0      10.2834       8.4104      69.5233
    340 3 0      9.31202      4.83622      70.7959
    341 1 0      9.72334      6.63479      72.7459
    342 1 0      9.82463      6.86365      71.3583
    343 1 0      10.1913      8.20944       70.848
    344 2 0      10.4225      9.19549      71.7273
    345 3 0      9.45932      5.66734      73.1264
    346 1 0      9.88997      7.53305      75.0165
    347 1 0       9.9782       7.7109      73.6196
    348 1 0      10.3415      9.03793      73.0586
    349 2 0      10.5818      10.0543      73.8998
    350 3 0      9.62862      6.57996      75.4331
    351 1 0        10.08      8.51729      77.2565
    352 1 0      10.1537      8.63856      75.8515
    353 1 0      10.5128      9.94358      75.2365
    354 2 0      10.7626      10.9913      76.0342
    355 3 0      9.82191      7.58136      77.7125
    356 1 0      10.2962      9.59777      79.4584
    357 1 0      10.3532      9.65419      78.0474
    358 1 0      10.7073      10.9332      77.3743
    359 2 0      10.9674      12.0149      78.1213
    360 3 0      10.0425      8.68361      79.9592
    361 1 0      10.5415      10.7834      81.6094
    362 1 0        10.58       10.769       80.196
    363 1 0      10.9279       12.017      79.4623
    364 2 0      11.1989      13.1341      80.1517
    365 3 0      10.2933      9.89614      82.1589
    366 1 0      10.8161      12.0743      83.6967
    367 1 0      10.8362      11.9895      82.2855
    368 1 0      11.1766      13.2021      81.4906
    369 2 0      11.4581       14.352      82.1203
    370 3 0      10.5741       11.216      84.2928
    371 1 0      11.1183      13.4626      85.7137
    372 1 0       11.121       13.312      84.3083
    373 1 0       11.453      14.4856      83.4541
    374 2 0      11.7436      15.6636      84.0257
    375 3 0      10.8826      12.6332      86.3518
    376 1 0      11.4459      14.9401      87.6595
    377 1 0       11.432      14.7269      86.2626
    378 1 0       11.755      15.8593      85.3519
    379 2 0      12.0535      17.0614      85.8667
    380 3 0      11.2168      14.1402      88.3362
    381 1 0      11.7978      16.5023      89.5327
    382 1 0      11.7674      16.2273      88.1471
    383 1 0      12.0808      17.3167      87.1828
    384 2 0      12.3865      18.5399      87.6406
    385 3 0      11.5756      15.7333      90.2465
    386 1 0      12.1732       18.146      91.3308
    387 1 0      12.1263      17.8093      89.9593
    388 1 0      12.4295      18.8538      88.9436
    389 2 0      12.7417      20.0955      89.3434
    390 3 0      11.9585      17.4099      92.0806
    391 1 0      12.5714       19.868      93.0499
    392 1 0       12.508        19.47      91.6954
    393 1 0      12.8003      20.4674      90.6306
    394 2 0      13.1186      21.7251      90.9714
    395 3 0      12.3648      19.1665      93.8343
    396 1 0      12.9916      21.6644      94.6862
    397 1 0      12.9119      21.2062      93.3516
    398 1 0      13.1927      22.1542      92.2398
    399 2 0      13.5162      23.4253      92.5205
    400 3 0      12.7935      20.9994      95.5039
    401 1 0      13.4328      23.5315      96.2362
    402 1 0       13.337      23.0143      94.9243
    403 1 0      13.6056      23.9107      93.7677
    404 2 0      13.9338      25.1925      93.9875
    405 3 0      13.2436      22.9043      97.0854
    406 1 0      13.8939      25.4648      97.6962
    407 1 0      13.7823      24.8899      96.4098
    408 1 0      14.0383      25.7328      95.2108
    409 2 0      14.3704      27.0226      95.3691
    410 3 0      13.7141      24.8769       98.575
    411 1 0       14.374      27.4598      99.0631
    412 1 0      14.2469      26.8288      97.8046
    413 1 0      14.4896      27.6165      96.5657
    414 2 0      14.8249      28.9115      96.6619
    415 3 0      14.2039      26.9124      99.9695
    416 1 0      14.8719       29.512      100.333
    417 1 0      14.7296      28.8265      99.1057
    418 1 0      14.9587      29.5575      97.8298
    419 2 0      15.2965      30.8549      97.8635
    420 3 0      14.7119       29.006      101.265
    421 1 0      15.2294      30.8785       100.31
    422 1 0      15.4444      31.5515      99.0001
    423 3 0      15.3482      31.4395      101.237
    424 3 0      15.7207      32.6052      98.9615
    425 1 0      104.251      20.0997      78.6151
    426 1 0      103.968      20.8423      79.7673
    427 1 0      102.599      21.1345      80.0586
    428 2 0      101.576      20.7472      79.3069
    429 3 0      105.264      19.8528      78.3505
    430 3 0       104.76      21.1852      80.4183
    431 3 0      102.332      21.7107      80.9465
    432 1 0      103.392      18.9263      76.6263
    433 1 0      103.151      19.6768      77.7966
    434 1 0      101.762      20.0283      78.1801
    435 2 0      100.743      19.6271      77.4067
    436 3 0       104.39      18.6626      76.3327
    437 1 0      102.473       17.783      74.6777
    438 1 0      102.277      18.5339      75.8544
    439 1 0      100.905      18.9113      76.2819
    440 2 0      99.8631       18.526      75.5308
    441 3 0      103.458      17.5039      74.3579
    442 1 0      101.486       16.659      72.7514
    443 1 0      101.336      17.4102      73.9345
    444 1 0      99.9839      17.8104       74.401
    445 2 0      98.9147      17.4447      73.6778
    446 3 0      102.457      16.3641      72.4045
    447 1 0      100.424      15.5557      70.8486
    448 1 0      100.324      16.3067      72.0377
    449 1 0      98.9928      16.7298      72.5436
    450 2 0      97.8967      16.3857      71.8515
    451 3 0       101.38      15.2444      70.4734
    452 1 0      99.2839      14.4751       68.972
    453 1 0      99.2364       15.225      70.1662
    454 1 0      97.9297      15.6724       70.714
    455 2 0      96.8062      15.3517      70.0559
    456 3 0      100.221      14.1466      68.5669
    457 1 0      98.0582      13.4205      67.1259
    458 1 0      98.0695       14.168       68.324
    459 1 0      96.7906       14.641      68.9164
    460 2 0      95.6391      14.3467      68.2968
    461 3 0      98.9739      13.0734      66.6884
    462 1 0      96.7375      12.3969      65.3175
    463 1 0      96.8159      13.1401      66.5171
    464 1 0      95.5693      13.6404      67.1573
    465 2 0      94.3878      13.3764      66.5826
    466 3 0      97.6266       12.029      64.8431
    467 1 0      95.3138      11.4122      63.5578
    468 1 0      95.4651      12.1483      64.7556
    469 1 0      94.2561      12.6767      65.4455
    470 2 0       93.044      12.4469      64.9216
    471 3 0      96.1707      11.0221      63.0437
    472 1 0      93.7884       10.473      61.8579
    473 1 0      94.0116      11.1998        63.05
    474 1 0      92.8449       11.756      63.7899
    475 2 0      91.6049      11.5612      63.3184
    476 3 0      94.6111      10.0619      61.3058
    477 1 0      92.1699      9.58183      60.2229
    478 1 0      92.4601      10.2979      61.4065
    479 1 0      91.3391      10.8805      62.1946
    480 2 0      90.0757      10.7194      61.7739
    481 3 0      92.9588      9.15218      59.6368
    482 1 0      90.4667      8.73827      58.6532
    483 1 0      90.8203      9.44258      59.8261
    484 1 0      89.7469      10.0499      60.6599
    485 2 0      88.4645      9.92116      60.2886
    486 3 0      91.2217      8.29187      58.0359
    487 1 0      88.6838      7.94239      57.1495
    488 1 0      89.0997      8.63366      58.3096
    489 1 0      88.0755       9.2639      59.1865
    490 2 0       86.777      9.16743      58.8647
    491 3 0      89.4035      7.48022      56.5025
    492 1 0      86.8245      7.19529      55.7141
    493 1 0      87.3023      7.87198      56.8588
    494 1 0      86.3292      8.52379      57.7768
    495 2 0      85.0173      8.45973      57.5052
    496 3 0       87.507      6.71814      55.0383
    497 1 0      84.8926      6.49848      54.3498
    498 1 0      85.4315      7.15915      55.4768
    499 1 0      84.5116      7.83113      56.4339
    500 2 0      83.1888      7.79975      56.2132
    501 3 0      85.5362      6.00729      53.6465
    502 1 0      82.8922      5.85357      53.0598
    503 1 0      83.4911      6.49685      54.1666
    504 1 0      82.6262       7.1876      55.1609
    505 2 0      81.2957      7.18914      54.9919
    506 3 0      83.4952      5.34928      52.3303
    507 1 0      80.8279      5.26192      51.8468
    508 1 0       81.485      5.88651      52.9312
    509 1 0      80.6774      6.59467      53.9607
    510 2 0      79.3417       6.6292      53.8439
    511 3 0       81.389      4.74564      51.0927
    512 1 0      78.7043      4.72499      50.7137
    513 1 0      79.4181      5.32955      51.7734
    514 1 0      78.6694      6.05361      52.8359
    515 2 0      77.3314      6.12121      52.7718
    516 3 0      79.2223       4.1978      49.9366
    517 1 0      76.5264      4.24389       49.663
    518 1 0       77.295      4.82729      50.6959
    519 1 0      76.6068      5.56574      51.7893
    520 2 0      75.2695      5.66638      51.7781
    521 3 0      77.0002      3.70698      48.8647
    522 1 0       74.299      3.81976      48.6972
    523 1 0      75.1207      4.38081      49.7011
    524 1 0      74.4942      5.13198      50.8228
    525 2 0      73.1604      5.26553      50.8647
    526 3 0       74.728      3.27435      47.8794
    527 1 0         72.9      3.99106      48.7911
    528 1 0      72.3363      4.75335      49.9387
    529 3 0      72.2351      3.57255      48.0356
    530 3 0      71.2594      4.89622      50.0286
    531 1 0      82.6933       60.004      16.1041
    532 1 0      81.9935      60.1678       14.903
    533 1 0      80.6719      59.6294      14.8165
    534 2 0      80.0623      58.9825      15.8026
    535 3 0      83.6901      60.3899      16.2212
    536 3 0      82.4383       60.686      14.0648
    537 3 0      80.0894      59.7337      13.8992
    538 1 0      82.7117      59.1186      18.4032
    539 1 0      82.0425      59.3061      17.1753
    540 1 0      80.6669      58.7819      16.9924
    541 2 0      80.0691      58.1311      18.0014
    542 3 0      83.7066      59.4906      18.5543
    543 1 0      82.6613      58.2166      20.6688
    544 1 0      82.0288      58.4255      19.4265
    545 1 0      80.6519      57.9203       19.193
    546 2 0      80.0255      57.2652      20.1815
    547 3 0      83.6555      58.5764      20.8503
    548 1 0      82.5425      57.2899      22.9216
    549 1 0      81.9481       57.521      21.6647
    550 1 0      80.5731      57.0343      21.3856
    551 2 0       79.912      56.3741      22.3483
    552 3 0      83.5349      57.6366      23.1348
    553 1 0      82.3486      56.3357      25.1614
    554 1 0      81.7955      56.5905      23.8897
    555 1 0      80.4237      56.1231      23.5644
    556 2 0      79.7267      55.4587       24.498
    557 3 0      83.3381      56.6682      25.4079
    558 1 0      82.0749      55.3529      27.3861
    559 1 0      81.5668      55.6327      26.0999
    560 1 0      80.1999      55.1867      25.7252
    561 2 0      79.4654      54.5186      26.6265
    562 3 0        83.06      55.6697      27.6681
    563 1 0       81.714      54.3397      29.5919
    564 1 0      81.2563      54.6467      28.2917
    565 1 0      79.8965      54.2244       27.864
    566 2 0      79.1223      53.5535      28.7283
    567 3 0      82.6929      54.6387      29.9127
    568 1 0      81.2547      53.2934      31.7729
    569 1 0      80.8555      53.6309      30.4598
    570 1 0      79.5056      53.2351      29.9749
    571 2 0      78.6875      52.5621      30.7955
    572 3 0      82.2244      53.5713       32.138
    573 1 0      80.6854      52.2135      33.9183
    574 1 0      80.3513      52.5831       32.595
    575 1 0      79.0151      52.2166      32.0498
    576 2 0      78.1501      51.5427      32.8206
    577 3 0      81.6422      52.4669      34.3319
    578 1 0       80.003      51.1032      36.0159
    579 1 0      79.7346      51.5034      34.6867
    580 1 0      78.4162      51.1684      34.0803
    581 2 0      77.5061      50.4953      34.7989
    582 3 0      80.9445      51.3317      36.4764
    583 1 0      79.2132      49.9676      38.0588
    584 1 0      79.0071      50.3956      36.7276
    585 1 0      77.7103      50.0932      36.0613