ITEM: TIMESTEP
3480000
ITEM: NUMBER OF ATOMS
848
ITEM: BOX BOUNDS pp pp ff
4.0000000000000000e+01 7.0566900000000004e+01
4.0000000000000000e+01 7.0566900000000004e+01
5.0000000000000000e+01 6.0566899999999997e+01
ITEM: ATOMS id type x y z
419 2 45.1983 42.9848 50.4596
418 1 45.427 43.9888 51.3217
417 1 45.962 43.6318 52.6973
416 1 46.0315 42.2691 53.0885
170 1 43.733 41.9998 54.8965
171 1 44.4949 42.0727 56.1625
164 1 43.3668 43.2432 54.3339
167 2 44.9009 43.2399 56.7075
168 3 42.7631 43.2538 53.4864
652 2 41.2721 43.7804 56.8348
166 1 44.6344 44.4562 56.2266
165 1 43.8631 44.3925 54.9191
422 1 45.3169 41.7185 50.8564
421 1 45.7155 41.3117 52.1737
411 1 46.4417 44.6284 53.5693
420 3 46.2641 41.9557 54.086
414 2 45.3506 45.2439 50.9333
162 2 44.9648 45.6181 56.7651
159 1 43.4843 45.5809 54.2684
163 3 42.8758 45.5398 53.3911
647 2 41.5312 45.9999 57.6134
651 1 41.0828 45.1368 56.667
722 2 41.8385 42.329 51.268
717 2 41.2337 44.6022 51.4574
412 1 46.3604 45.9248 53.0448
646 1 41.451 47.3107 57.4097
424 3 45.1272 40.9639 50.0867
160 1 44.0205 46.7316 54.855
161 1 44.6788 46.8147 56.1935
413 1 45.8041 46.2618 51.7172
721 1 40.9464 43.3819 51.1498
406 1 46.8807 46.9657 53.8578
172 2 44.6758 40.9015 56.8204
169 1 43.1963 40.8037 54.3815
173 3 42.4295 40.8111 53.557
726 1 41.5289 41.0603 51.0445
415 3 46.8274 44.4214 54.553
112 3 47.2943 41.1273 55.917
657 2 40.6184 41.5343 56.3234
656 1 40.625 42.8495 56.0947
644 1 40.2832 46.9626 55.1877
650 1 40.4146 45.5876 55.4455
410 3 47.259 46.7622 54.83
716 1 40.4751 45.6832 51.3384
712 2 40.884 46.9403 51.7145
423 3 45.7965 40.2574 52.4508
409 2 45.7502 47.5159 51.2572
108 1 47.3872 40.0594 56.0944
725 1 40.086 40.7273 50.671
661 1 40.1125 40.5633 55.4907
727 2 42.4097 40.0899 51.2501
556 2 53.3384 41.5617 54.388
341 1 50.7357 47.4868 54.4874
359 2 48.8719 40.339 52.2886
356 1 50.2534 40.35 54.8025
470 2 52.9298 47.3225 57.8899
471 3 49.0613 46.8197 57.5381
555 1 53.0196 40.4653 53.7059
566 2 54.1524 46.2156 54.9041
564 1 53.2553 45.3355 52.8321
467 1 50.1315 47.0006 57.6411
354 2 49.0605 42.7113 52.2928
481 3 49.6443 42.1461 58.648
553 1 52.4454 41.9227 51.7481
484 1 53.0646 41.4896 58.7675
559 1 52.7987 43.0147 52.538
558 1 52.8168 44.2881 51.9813
557 3 52.2582 42.0322 50.6715
113 3 48.3124 40.3361 58.0106
351 1 50.1737 42.7687 54.8282
355 3 50.5771 42.8505 55.843
479 1 52.7105 43.7486 58.3261
560 1 53.2881 42.8202 53.9049
347 1 50.315 46.3232 53.8721
357 1 49.8233 41.539 54.2136
554 1 52.4326 40.6386 52.3434
478 1 51.2498 43.5312 58.3692
472 1 50.3725 44.6449 58.1464
349 2 49.3373 45.1 52.0611
480 2 53.5332 42.698 58.47
360 3 50.6613 40.2716 55.7898
483 1 51.6039 41.2535 58.9605
567 3 53.0287 46.7262 51.2458
570 1 54.1621 47.4724 54.4522
346 1 50.4851 45.165 54.6629
485 2 53.9329 40.5132 59.1385
475 2 53.1807 45.0026 58.145
344 2 49.5812 47.48 51.8945
476 3 49.3062 44.5812 58.0873
562 3 52.602 44.4549 50.994
477 1 50.7006 42.2572 58.6391
352 1 49.9773 43.9703 54.1255
358 1 49.2486 41.5083 52.8502
350 3 50.9516 45.2137 55.638
473 1 50.9546 45.8813 57.883
348 1 49.6718 46.2737 52.5018
561 2 53.7197 43.8705 54.6549
565 1 53.7553 45.1419 54.1939
474 1 52.4452 46.0733 57.943
353 1 49.3944 43.9168 52.7556
563 1 53.3166 46.6249 52.2556
345 3 51.0567 47.4828 55.532
482 1 51.1306 40.0077 59.4251
404 2 46.2847 49.7947 51.5347
152 2 45.2062 50.3579 56.4801
149 1 43.8981 50.3666 53.9745
153 3 43.3884 50.3623 52.9996
642 3 41.4663 51.1524 56.6825
150 1 44.231 51.59 54.6177
151 1 44.9594 51.5491 55.8983
211 3 42.4744 52.4639 57.6514
147 2 45.47 52.6954 56.3834
399 2 46.781 52.1148 51.7381
403 1 46.7875 50.8384 52.1978
144 1 43.9521 52.8489 54.0087
148 3 43.3838 52.9444 53.0935
212 3 43.801 53.092 59.8078
209 1 42.7336 53.4941 57.9278
637 1 40.8066 49.2413 55.9035
638 1 41.453 50.0797 56.7967
643 3 42.2862 50.1469 58.8
156 1 44.8434 49.1714 55.976
155 1 44.1604 49.1637 54.6674
639 1 41.9031 49.492 58.0181
146 1 45.3332 53.8626 55.7289
145 1 44.4606 54.0121 54.5265
210 1 43.4568 53.8787 59.1215
208 3 41.8223 54.2823 56.1671
394 2 47.2074 54.4343 51.7888
398 1 47.2414 53.1941 52.3201
408 1 46.2757 48.5335 52.0014
402 1 47.3459 50.6549 53.5634
641 3 40.416 49.5825 54.9715
401 1 47.2536 49.3719 54.1495
158 3 43.3004 47.8733 53.1825
157 2 45.0442 48.0029 56.6182
154 1 43.7741 47.9097 54.1469
640 2 41.8943 48.2171 58.341
707 2 40.47 49.1863 52.1499
407 1 46.7873 48.2974 53.3617
204 1 42.4177 54.4926 57.023
702 2 40.0374 51.4309 52.6527
207 2 43.8311 55.1368 59.3921
142 2 45.8425 54.9928 56.2722
645 1 40.8355 47.8315 56.1707
405 3 47.6323 49.152 55.1593
139 1 44.2085 55.273 53.9327
711 1 40.0215 47.9488 51.7651
464 1 51.9968 50.8098 57.6078
397 1 47.9839 52.9806 53.6021
396 1 47.9686 51.6926 54.232
521 3 54.688 54.0384 58.5247
574 1 54.2446 50.0194 53.3435
460 2 52.6187 51.9698 57.5547
340 3 51.4335 50.0732 55.2465
469 1 52.1641 48.4289 57.7381
455 2 52.5746 54.2686 57.196
457 1 49.7718 51.9182 57.4632
463 1 50.5161 50.7341 57.6107
332 1 51.4447 53.3334 52.9037
335 3 52.0951 52.4686 54.7681
462 1 49.9117 49.4573 57.5899
576 2 54.9566 50.8157 55.5437
575 1 54.6326 49.7676 54.7623
338 1 50.4519 50.907 51.9653
577 3 53.8017 51.4965 51.7528
330 3 52.1719 54.62 54.4918
326 1 51.7868 54.5832 53.4457
584 1 54.8112 54.639 53.9955
452 1 49.7112 54.369 57.4018
336 1 51.024 49.9542 54.2357
580 1 54.9957 52.0523 55.0724
331 1 51.6316 52.2615 53.7988
468 1 50.7034 48.2997 57.6802
573 1 54.1885 51.2845 52.7686
568 1 53.7589 48.9799 52.498
459 1 51.9563 53.1531 57.4093
582 3 54.3925 53.8442 52.0241
395 3 49.1032 53.9169 55.2152
400 3 48.4848 51.5053 55.147
465 2 52.7114 49.6512 57.7096
329 2 50.6803 54.2984 50.8456
466 3 48.8361 49.3875 57.5309
337 1 51.0299 51.0298 53.3328
458 1 50.4341 53.1725 57.4544
572 3 53.4318 49.1585 51.5226
461 3 48.739 51.8396 57.4192
456 3 48.6292 54.4643 57.4033
333 1 50.7937 53.1877 51.5729
578 1 54.5776 53.5834 53.0769
339 2 50.0157 49.6928 51.5628
334 2 50.3588 51.9706 51.1738
342 1 50.5985 48.7131 53.7659
579 1 54.5964 52.2873 53.6619
571 2 54.5749 48.4988 55.2345
391 1 48.6346 54.0669 54.2361
343 1 50.032 48.6181 52.3843
569 1 53.7348 47.6853 53.0499
581 2 55.2478 53.1529 55.8726
202 2 43.8508 57.4302 58.8179
134 1 44.5211 57.658 54.1015
138 3 43.875 57.7635 53.2284
200 1 42.7524 58.2435 56.8508
136 1 46.0369 58.5541 55.8985
201 1 43.511 58.5021 58.1482
135 1 45.1807 58.7561 54.6637
198 3 41.8137 59.0783 55.1762
194 1 42.3776 59.3151 56.0767
132 2 46.6118 59.6028 56.4357
129 1 45.0347 60.0268 54.1289
197 2 43.822 59.7615 58.4244
133 3 44.5247 60.16 53.1632
131 1 46.3789 60.8747 56.0221
195 1 42.7769 60.6385 56.4315
196 1 43.5494 60.8599 57.6658
130 1 45.5452 61.1353 54.8157
199 1 42.4774 56.9282 56.4278
137 2 46.2534 57.2957 56.302
203 3 41.9939 56.6895 55.4767
193 3 41.8747 61.608 54.7418
127 2 46.959 61.9385 56.6003
189 1 42.4663 61.7392 55.6223
192 2 43.893 62.0931 58.0532
140 1 44.7837 56.3458 54.5683
141 1 45.7485 56.1976 55.7702
206 1 43.4963 56.1419 58.5792
205 1 42.7602 55.8689 57.3265
314 3 40.6759 60.361 60.0464
389 2 47.4716 56.7893 51.9989
310 1 40.2144 60.4767 59.084
317 3 40.3698 62.5677 59.0554
124 1 45.3714 62.4302 54.3115
309 3 40.6147 57.8891 59.634
128 3 44.893 62.6572 53.3859
304 3 40.3729 55.5022 59.3547
143 3 43.5624 55.3329 53.0827
508 1 54.3973 60.3129 59.9934
511 3 52.9758 58.7056 59.71
383 1 48.2603 60.205 52.7886
393 1 47.6755 55.5096 52.3947
381 1 49.4308 58.7764 54.5125
441 3 49.4116 61.8262 58.2114
589 1 55.1739 56.9812 54.2761
384 2 47.7266 59.1272 52.2249
512 1 54.8836 56.653 59.177
588 1 55.2186 58.2319 53.665
328 1 51.0502 55.4923 51.2553
503 1 53.7969 62.6556 60.4248
327 1 51.5895 55.7193 52.6398
513 1 55.0821 58.0289 59.4743
377 1 49.332 62.4745 54.1484
392 1 48.4015 55.3492 53.6839
502 1 53.4065 61.2935 60.3011
323 3 52.3512 57.3226 53.99
450 2 52.6806 56.6116 56.9301
451 3 48.8888 56.9399 57.7663
440 2 53.1188 61.3472 56.9372
443 1 51.0089 60.414 57.5743
437 1 50.4615 61.6974 57.8805
382 1 49.2138 60.0522 53.9384
439 1 52.7301 62.5708 57.2544
319 1 51.899 57.0281 53.0817
376 1 49.7029 61.1791 54.6173
516 3 53.8958 56.2584 59.1888
507 1 54.0666 58.9733 59.7245
380 3 50.3647 61.0937 55.4632
583 1 54.6511 55.9206 53.4882
587 3 54.2666 56.0518 52.406
378 1 48.5327 62.5413 52.9041
386 1 48.9268 56.4328 54.4406
442 1 50.1529 59.2905 57.7068
537 3 52.5556 60.6934 53.7577
445 2 52.8598 58.9788 56.8879
506 3 52.3956 60.9832 60.2837
447 1 49.8982 56.8359 57.4584
592 3 54.8983 58.3536 52.6246
532 1 51.6999 61.6415 51.9696
385 3 50.0359 58.7071 55.3857
379 2 48.0025 61.4547 52.3754
325 3 50.8931 58.6007 50.2691
321 1 51.1389 57.8409 50.8943
444 1 52.3934 60.2026 57.0894
322 2 50.7994 56.6003 50.5256
388 1 47.981 57.8553 52.6096
387 1 48.8201 57.728 53.8324
448 1 50.7312 58.0075 57.436
533 1 52.3313 61.6481 53.2323
531 1 51.4455 62.8834 51.3667
438 1 51.3329 62.8112 57.8216
449 1 52.1784 57.8317 57.0685
534 2 52.7234 62.7578 53.8093
324 3 51.8104 59.1895 52.4638
536 3 51.4584 60.7145 51.517
390 3 49.486 56.2461 55.3585
454 1 51.989 55.481 57.1025
453 1 50.5205 55.5654 57.3041
320 1 51.6294 58.1255 52.1915
446 3 49.1373 59.3845 58.0403
180 1 43.1222 67.8294 55.5876
181 1 43.869 67.9226 56.8357
118 3 45.6312 67.4549 54.0201
114 1 46.2836 67.2037 54.8816
179 1 42.7336 66.5309 55.0863
182 2 44.1129 66.7777 57.4915
183 3 42.2403 66.5224 54.1607
737 2 43.4002 65.9865 51.5986
120 1 46.525 65.8539 55.3112
186 1 43.6938 65.556 57.0905
185 1 42.951 65.3772 55.814
732 2 42.9124 68.311 51.4653
115 1 46.8791 68.2419 55.7078
736 1 42.5724 67.0071 51.3681
121 1 47.166 65.5411 56.6061
174 1 42.8388 68.9728 54.8002
178 3 42.267 68.8759 53.897
740 1 43.045 64.6899 51.5253
123 3 45.4636 65.1012 53.5483
119 1 45.9658 64.8266 54.4924
187 2 43.9188 64.438 57.7775
184 1 42.512 64.1462 55.3237
731 1 42.0916 69.3596 51.1587
122 2 47.2998 64.2292 56.9071
177 2 44.3322 69.1404 57.1367
739 1 41.7345 64.3114 51.0733
735 1 41.2059 66.6677 50.9165
107 1 46.8156 69.6082 55.289
188 3 41.8951 64.1484 54.3768
734 1 40.7839 65.3173 50.8304
730 1 40.737 68.9982 50.7257
125 1 45.9495 63.5113 55.026
742 3 43.8519 63.9114 51.5057
116 1 47.5309 67.8505 57.0005
176 1 44.2231 70.2776 56.3862
126 1 46.7819 63.219 56.1955
191 1 43.5851 63.203 57.3665
190 1 42.9127 63.029 56.0512
729 1 40.2746 67.6798 50.5182
117 2 47.6168 66.5356 57.3408
111 3 46.323 69.9237 54.3699
175 1 43.4066 70.2088 55.1751
741 3 41.5293 63.1993 50.9213
662 2 40.1407 69.8409 55.738
504 1 55.2242 63.0451 60.2808
486 3 50.1068 70.3576 59.551
491 3 50.6319 68.1848 60.3704
433 1 51.7447 65.2253 57.6333
490 2 54.4411 68.9425 59.9764
373 1 48.7277 64.942 52.942
541 2 52.8833 65.0904 54.0188
489 1 53.5569 69.9121 59.6517
495 2 55.0303 66.6793 60.2019
488 1 52.1089 69.6725 59.8338
374 2 48.2795 63.7876 52.3974
375 3 50.2864 63.6235 55.7506
371 1 49.8079 63.6482 54.7809
361 1 50.0207 68.5868 54.7983
372 1 49.5157 64.9027 54.1757
430 3 51.95 68.6247 57.418
110 2 48.0509 68.8556 57.71
436 3 49.8674 64.3093 58.3242
551 2 53.1677 69.7866 54.2148
428 2 53.9724 65.9357 56.8682
543 1 51.7487 67.6778 51.5405
496 3 51.2196 65.7211 60.5584
109 1 47.9726 70.1425 57.3082
369 2 48.458 66.1594 52.3903
552 3 51.7142 70.1773 50.5655
544 1 51.9197 66.4137 52.2248
365 3 50.4803 68.6013 55.7191
545 1 52.6735 66.3093 53.4999
364 2 48.7234 68.5174 52.2906
432 1 50.8916 64.1478 58.0276
487 1 51.7052 68.3841 60.2625
550 1 52.8047 68.7154 53.5295
501 3 51.7899 63.4248 60.5231
435 2 53.4905 63.611 57.0061
549 1 52.1902 68.836 52.1958
426 1 52.2311 67.6049 57.3406
498 1 53.2603 65.0136 60.3441
362 1 49.8163 69.7785 54.1234
431 3 54.1795 68.0291 56.6745
497 1 52.8352 63.6624 60.5127
429 3 50.3102 66.87 58.1293
494 1 54.1047 67.6376 60.1856
546 2 53.0891 67.4611 54.0253
370 3 50.388 66.1259 55.7499
434 1 53.0998 64.8996 57.1748
367 1 49.578 67.3724 54.2063
547 3 51.3588 67.7522 50.5302
427 1 53.5385 67.2108 56.9259
366 1 49.8311 66.1508 54.807
493 1 52.6431 67.3562 60.3576
425 1 51.3111 66.6201 57.7574
363 1 49.1315 69.7109 52.7885
540 1 52.5199 63.9894 53.356
542 3 50.8347 65.3955 50.639
538 1 51.4283 65.2979 51.5267
368 1 48.8469 67.2966 52.9019
499 1 54.6805 65.3612 60.3216
492 1 52.2621 66.0004 60.424
539 1 51.8648 64.0482 51.9939
548 1 52.0483 70.0865 51.5819
848 3 55.0284 70.5109 50.5428
535 3 50.9629 62.9577 50.3638
618 1 56.2334 41.8161 56.7959
624 1 56.9486 42.8007 57.5883
625 1 57.7137 42.3346 58.7501
621 2 57.8494 41.0384 58.9745
626 2 58.1996 43.3617 59.5185
623 1 56.6967 44.1306 57.2493
630 1 58.0101 44.6483 59.3045
1 1 59.358 44.9773 51.0882
4 2 60.5643 44.8044 53.6143
772 1 60.6835 44.6993 57.1761
836 1 56.9904 44.7852 53.5146
771 1 61.3857 44.5203 58.4646
2 1 59.4454 43.7198 51.711
3 1 60.1373 43.733 52.9832
629 1 57.2885 45.082 58.0989
837 1 56.3988 45.1871 52.1788
7 3 60.2286 42.8245 53.5484
6 3 59.1095 42.8188 51.2442
631 2 58.5061 45.6579 60.093
773 2 60.1645 43.6725 56.4932
777 1 60.3163 42.3858 56.8115
835 1 57.1516 43.4572 53.9156
770 1 61.6336 43.2031 58.8762
839 3 57.6299 43.2296 54.8161
774 3 62.121 42.9441 59.7588
219 3 62.0691 45.3063 50.245
628 1 57.1956 46.4691 57.7558
632 3 56.592 46.7596 56.9115
842 1 56.1198 42.883 51.7332
634 1 58.4483 46.9394 59.7689
834 3 58.0843 45.4841 55.2385
765 1 61.8413 45.6412 59.1629
830 1 57.6076 45.7413 54.3531
768 2 60.4461 45.9446 56.7272
833 2 56.3875 46.4849 51.8749
779 3 62.0352 40.58 59.3138
5 3 58.9374 45.0618 50.1007
775 1 61.4721 40.8273 58.4464
841 1 56.6481 42.454 53.0439
776 1 61.1319 42.1484 58.0631
778 2 59.9253 41.3694 56.0569
838 2 56.0275 44.2139 51.3646
10 1 60.459 46.049 53.1107
840 1 56.6609 41.0503 53.3786
9 1 59.9091 46.0994 51.7547
844 3 57.1413 40.6932 54.2925
627 3 56.1059 44.3893 56.4108
769 3 62.3327 45.5754 60.1244
633 1 57.7364 47.4033 58.6237
766 1 61.6448 46.895 58.5385
767 1 60.8739 47.1113 57.3003
831 1 57.4885 47.1087 53.964
845 1 56.1034 40.1621 52.456
11 2 60.9589 47.1849 53.683
12 3 59.1655 47.501 50.2618
8 1 59.7101 47.3879 51.1792
782 1 60.1754 40.1023 56.4276
619 1 56.617 40.4671 56.933
215 1 62.6549 46.0942 50.6913
846 1 55.5304 40.6532 51.249
67 3 62.3504 42.9982 53.7919
216 2 62.4419 47.3482 50.3221
843 2 55.6044 41.958 50.9164
62 3 62.1381 40.6362 53.3861
58 1 62.688 40.4486 54.3057
832 1 56.8733 47.4528 52.6586
622 3 55.6147 42.0996 55.9997
63 1 62.8534 42.7782 54.7203
620 1 57.3481 40.0567 58.1578
286 1 68.2526 47.5656 56.8218
653 3 69.8989 44.9403 53.6329
218 3 63.5501 44.6001 51.8939
72 3 62.9583 45.2605 54.098
648 3 70.3625 47.3283 54.2959
718 3 68.161 44.0961 50.1612
75 1 64.5168 45.7407 57.1741
68 1 63.3936 45.0885 55.0424
649 1 70.4508 44.6463 54.5058
655 1 70.5219 43.2979 54.8594
271 1 67.0674 40.6228 55.7133
64 1 63.0725 41.4838 55.1724
284 3 68.6346 46.108 58.338
279 3 68.3233 43.7519 57.935
272 1 66.4254 40.9142 54.4376
273 2 66.3838 42.2076 54.0546
663 3 68.8371 40.5165 52.5361
714 1 69.18 44.1471 50.5398
720 1 70.1088 43.0748 50.7576
658 3 69.364 42.6103 53.1469
719 1 69.6828 41.7348 50.514
276 1 67.5452 42.9444 56.0782
660 1 69.9856 40.9765 54.2492
69 1 63.4544 43.7717 55.5373
65 1 63.7931 41.1545 56.4404
71 2 64.6351 44.467 57.5235
73 1 63.9694 47.3945 55.2939
275 1 68.0494 43.9453 56.9191
214 1 63.554 45.6386 51.7264
281 1 67.9292 45.2805 56.4349
709 1 68.6993 46.4587 50.9414
66 2 64.2543 42.1375 57.2007
715 1 69.645 45.4403 50.9262
713 3 67.7012 46.2977 50.6278
270 1 67.4728 41.6629 56.6117
213 1 64.436 46.5418 52.3266
283 2 67.3655 46.832 54.7056
278 2 66.9183 44.491 54.3831
217 3 65.1676 46.3631 53.1122
723 3 68.6935 41.445 50.1577
274 3 67.9143 41.4539 57.5994
282 1 67.3997 45.5421 55.0969
76 2 64.8883 46.7947 57.9634
277 1 66.9358 43.1987 54.7258
280 1 68.2924 46.2564 57.3456
74 1 63.9679 46.0928 55.8423
654 1 69.9511 42.3657 53.9989
70 1 64.1513 43.4227 56.797
659 1 69.3868 40.0722 53.3616
757 1 61.5907 51.7842 57.5029
821 1 58.1849 51.7498 54.7697
822 1 57.6803 52.026 53.3897
21 2 61.8664 51.7942 53.8412
18 1 60.7411 52.1681 51.2491
22 3 60.2857 52.4385 50.2728
819 3 58.9918 52.4899 56.5835
815 1 58.5838 52.7305 55.6616
529 3 57.536 50.316 58.9508
19 1 60.7232 50.9156 51.8702
20 1 61.3453 50.7383 53.2249
17 3 59.5908 49.9035 50.3031
13 1 60.0695 49.7939 51.2766
525 2 59.2052 53.2098 59.2744
527 1 57.7714 51.3517 58.8801
530 3 59.9155 51.2939 59.2691
528 1 59.0446 51.9171 59.1638
522 1 56.6819 52.1663 58.5867
523 1 56.8549 53.5762 58.736
823 2 57.3478 51.0027 52.5795
16 2 61.4316 49.4844 53.7107
758 2 61.1279 50.6365 56.8816
14 1 60.2722 48.5217 51.7926
827 1 57.3682 49.7337 52.9799
753 2 61.5452 52.9794 56.9333
818 2 57.5893 53.3059 52.9935
635 3 57.57 48.4598 58.4651
752 1 62.0337 54.1022 57.4646
816 1 58.534 54.0084 55.07
820 1 58.4627 50.427 55.1298
762 1 61.2104 49.4319 57.3958
25 1 61.8157 53.0616 53.35
824 3 58.9209 50.1824 56.0573
825 1 58.0139 48.1087 54.8214
24 1 61.2504 53.2701 51.9954
826 1 57.9475 49.4116 54.3139
761 1 61.7666 49.3068 58.7741
828 2 56.904 48.7163 52.2268
763 2 60.7153 48.3168 56.7852
26 2 62.24 54.1186 54.0558
526 3 55.7665 51.7023 58.3679
760 1 62.0737 48.0337 59.2889
756 1 62.1363 51.6726 58.8522
817 1 58.053 54.3604 53.71
23 1 61.0978 54.5671 51.5165
829 3 58.3696 47.9014 55.7983
27 3 60.7281 54.8185 50.5507
15 1 60.9171 48.4017 53.144
524 1 58.2283 54.0978 59.0491
517 1 55.734 54.4123 58.6951
814 3 59.4677 54.8566 56.8127
751 1 62.6693 54.0287 58.8195
755 1 62.2337 50.4415 59.5069
764 3 62.6844 47.8769 60.15
810 1 59.0801 55.0185 55.8551
750 1 62.7515 52.8172 59.481
759 3 62.7777 50.4099 60.4377
585 1 55.2954 54.367 55.4015
636 3 58.8966 47.6604 60.5375
710 1 69.1816 47.755 51.3628
94 1 65.8044 55.229 57.4622
747 3 63.8899 55.1274 60.1942
697 2 70.2621 53.7291 53.0521
706 1 70.2628 50.2372 52.0704
78 1 64.5079 49.705 55.715
89 1 65.3954 52.9912 57.0276
289 3 68.96 48.5157 58.6936
228 2 63.8782 51.8529 50.6257
79 1 64.4796 48.3852 56.1592
226 1 64.7887 50.1798 52.1156
227 1 63.9142 50.5464 50.9879
287 1 67.7815 47.8636 55.4538
297 1 68.5624 52.551 56.13
220 1 65.0276 48.8498 52.4839
224 3 65.7304 48.587 53.2162
88 1 65.4246 54.2851 56.5024
293 2 68.1261 51.4965 55.387
90 1 65.9368 52.5746 58.3782
294 3 69.689 50.7715 58.8163
699 1 68.0426 51.2389 51.439
296 1 69.2552 52.2846 57.4049
704 1 68.3011 48.8512 51.2753
232 1 64.421 52.8865 51.2528
87 3 64.5563 52.3368 55.1545
237 1 64.8191 55.175 51.6525
291 1 68.6733 49.932 57.1373
698 3 67.0096 53.6233 50.8
298 2 68.516 53.8327 55.775
95 1 66.364 54.8673 58.7901
92 3 65.2402 54.4951 55.4428
85 1 65.4351 50.364 57.9708
292 1 68.1337 50.2136 55.7901
295 1 69.9121 53.2717 58.1537
230 1 65.7561 53.5381 53.2666
81 2 65.3958 49.0512 58.3143
705 1 68.8607 50.1003 51.5809
222 1 63.268 48.2849 50.8361
694 1 67.9419 53.6424 51.3416
86 2 65.9322 51.3221 58.7718
236 1 65.5666 54.8747 52.8664
302 1 68.9918 54.8664 56.4996
301 1 69.7164 54.6005 57.759
233 2 64.3411 54.1604 50.8681
290 1 69.2742 50.9722 57.9055
83 1 64.9189 52.0504 56.1413
229 3 66.106 50.9557 53.6539
701 1 69.8936 52.531 52.4925
708 3 67.2587 48.696 50.8782
82 3 64.1877 49.9648 54.7039
288 2 67.693 49.1635 55.1136
700 1 68.6212 52.4689 51.7419
225 1 65.4606 51.2159 52.8427
91 2 66.4099 53.5718 59.1449
231 1 65.1751 52.5324 52.5011
703 3 67.0151 51.0875 51.0251
695 1 68.5742 54.8879 51.746
221 1 64.2282 47.8751 51.8957
234 3 66.3708 53.2141 54.1003
754 3 63.1471 52.7391 60.4711
84 1 64.9633 50.7071 56.6161
696 1 69.7155 54.8635 52.7003
223 2 63.2087 49.5687 50.4097
285 1 68.6459 48.6278 57.6402
80 1 64.9341 48.042 57.5415
743 1 63.3187 55.1989 59.3347
299 3 70.4186 52.9712 59.0463
77 3 63.6165 47.6545 54.3154
804 3 60.0282 59.5425 57.7662
33 1 61.411 59.3053 52.3669
800 1 59.7386 59.6849 56.7545
37 3 60.8338 59.5417 51.5184
39 1 61.9735 60.3374 53.1398
803 2 58.8539 60.2792 54.255
595 1 56.0798 59.0867 55.8758
515 2 57.5182 57.603 59.5515
514 1 56.4861 58.4897 59.6195
596 2 56.3608 60.1417 56.6386
34 1 61.683 57.9618 52.7556
519 1 57.3686 56.3165 59.2695
807 1 58.8083 58.9756 54.5636
510 2 56.7592 59.7672 59.8349
806 1 59.2778 58.6492 55.9086
32 3 60.8935 57.1561 50.9243
28 1 61.3089 56.9536 51.8684
600 1 56.3504 61.4071 56.2718
509 1 55.8072 60.7337 60.0182
801 1 59.7965 61.0646 56.3519
802 1 59.2696 61.3055 54.9952
42 3 61.1966 61.9298 51.7982
38 1 61.7703 61.6607 52.6828
601 2 56.6324 62.5095 57.03
812 1 58.4204 56.6623 54.1143
808 2 58.4347 57.9594 53.7318
749 3 62.36 57.3751 56.9204
805 1 59.2639 57.3532 56.4021
809 3 59.4805 57.0302 57.4106
591 2 56.0429 57.8228 56.3246
811 1 58.9918 56.3774 55.4364
813 2 58.0636 55.6348 53.3493
518 1 56.0165 55.7551 59.062
745 1 62.4426 56.4403 57.4549
799 3 60.6356 61.8777 58.1929
795 1 60.2343 62.0505 57.2247
520 2 58.3668 55.3926 59.3023
746 2 61.9925 55.3105 56.8793
44 1 62.2512 62.6847 53.5228
35 1 62.3007 57.7178 54.0695
31 2 62.379 56.4544 54.4492
40 1 62.6167 60.0626 54.4655
599 1 55.9539 61.6693 54.8703
590 1 55.7592 56.7361 55.6225
505 2 56.0821 62.029 60.1934
36 2 62.783 58.7846 54.7937
45 1 62.9237 62.388 54.8498
594 1 55.6759 59.3276 54.4709
798 2 59.1879 62.624 54.5928
29 1 61.4996 55.6529 52.3343
586 2 55.8013 55.4572 56.007
593 1 55.7094 60.6314 53.9318
30 1 62.0602 55.3922 53.7002
597 3 55.4865 60.7922 52.9204
254 3 67.0491 62.7121 55.9185
682 2 70.0528 60.6788 53.7703
305 1 70.5612 58.0408 58.7713
41 2 62.9982 61.0853 55.2247
318 3 69.5805 62.8181 56.9171
683 3 67.7525 61.1764 50.6974
679 1 68.3453 61.0433 51.587
693 3 67.3642 56.1919 50.4786
311 1 70.2445 59.3469 58.3246
96 2 66.8018 55.8356 59.6645
251 1 66.1597 61.9006 54.0765
99 1 65.9684 57.553 58.0609
744 1 63.1425 56.4291 58.7047
748 3 63.7081 57.3183 59.1085
246 1 65.9082 59.5665 53.6949
243 2 64.7903 58.7989 51.7411
249 3 66.8849 60.4471 55.457
300 1 70.2676 55.6587 58.5516
101 2 67.2786 58.092 60.0305
691 1 69.6761 57.2263 52.8891
100 1 66.6946 57.0932 59.329
303 2 68.7904 56.1432 56.1176
316 1 69.7711 61.8584 57.3387
690 1 68.6081 57.3474 51.8344
103 1 66.4389 59.8609 58.5577
105 3 66.3738 60.8815 58.3669
306 1 70.0164 56.96 58.0122
235 1 66.0999 55.8791 53.6807
681 1 69.7299 61.9546 53.5357
102 3 65.2494 59.3389 56.9263
241 1 65.7646 57.2097 53.3126
240 1 66.1263 58.2571 54.1493
689 1 68.0722 56.1305 51.317
93 1 65.512 56.5877 57.1434
98 1 65.793 58.9277 57.7613
238 2 64.6022 56.4715 51.3547
312 1 69.4962 59.5604 57.036
245 1 66.4358 60.5766 54.5097
104 1 67.2154 59.3443 59.6743
97 3 64.9971 56.8806 56.2041
248 2 64.9827 61.158 52.136
685 1 68.7153 59.7513 52.0307
242 1 64.9798 57.5178 52.0688
688 3 67.4374 58.7197 50.5637
680 1 68.9058 62.1804 52.2893
686 1 69.7033 59.5678 53.1714
684 1 68.1647 58.6085 51.3658
252 1 65.4503 62.1901 52.8186
308 2 69.0118 58.5034 56.3934
244 3 66.5879 58.0404 55.0693
247 1 65.2019 59.8847 52.4017
313 2 69.3206 60.831 56.6544
106 3 67.8466 60.0123 60.2513
239 3 66.655 55.6097 54.6071
307 1 69.2188 57.2247 56.7888
687 2 70.1355 58.3513 53.4702
315 1 70.5353 61.7214 58.5477
692 2 70.1953 56.0587 53.1911
250 1 66.6017 62.8951 54.9736
605 1 56.6628 63.7414 56.6497
788 2 59.6223 67.2784 55.3238
786 1 60.7647 68.0286 57.293
608 1 56.2094 67.7419 55.2628
611 2 57.3397 67.0807 57.8135
603 1 56.0686 65.3874 54.7676
604 1 56.1959 64.0742 55.2463
609 1 56.3739 66.4049 55.6652
610 1 56.9718 66.0903 56.9909
606 2 57.0578 64.8009 57.3915
52 3 62.2624 66.5503 52.3167
615 1 57.2291 68.3363 57.5036
614 1 56.617 68.7011 56.1827
785 1 61.0103 66.7368 57.7383
789 3 61.4103 66.5253 58.7045
792 1 59.7685 65.9902 55.6729
43 1 62.1326 63.9882 53.0538
47 3 61.7393 64.2481 52.0197
616 2 57.6218 69.3545 58.3222
791 1 60.5085 65.6653 56.9329
793 2 59.3446 64.9599 54.9713
784 3 61.9376 68.8991 58.9273
787 1 60.012 68.3565 56.0564
780 1 61.2994 69.077 58.0799
613 1 56.2668 70.0609 55.9394
797 1 59.4822 63.6597 55.3582
612 3 55.7183 68.0202 54.3633
48 1 62.5959 66.3307 53.34
790 1 60.6348 64.3554 57.4629
53 1 62.6587 68.6493 53.8205
794 3 61.0653 64.1464 58.4341
57 3 62.2113 68.817 52.8581
796 1 60.0919 63.3391 56.6695
783 2 59.8144 69.6245 55.6981
847 3 56.0311 69.6402 52.7511
500 2 55.5617 64.342 60.2701
49 1 62.6695 64.9999 53.8605
617 3 55.7574 70.3139 55.0906
607 3 55.5989 65.6145 53.8579
781 1 60.9381 70.3478 57.67
54 1 62.8392 67.3379 54.2718
602 3 55.5243 63.2255 53.3969
598 1 55.7993 62.9935 54.4345
268 2 66.1191 70.4066 53.6498
59 1 62.9672 69.6994 54.7022
667 2 70.4482 67.616 55.097
677 2 70.1126 62.9955 54.223
46 2 63.3528 63.4336 55.5483
263 2 65.7858 68.0851 53.3179
267 1 66.1719 69.153 54.0685
269 3 67.6947 69.6536 57.2316
665 1 69.5227 69.2628 53.6146
255 1 66.7136 65.1931 55.5075
262 1 65.984 66.8225 53.6547
664 1 68.9896 68.2541 52.7542
253 2 65.2643 63.5267 52.5158
266 1 66.783 68.8527 55.3864
256 1 66.3844 64.2032 54.5632
51 2 63.5507 65.8103 55.9657
50 1 63.1919 64.7441 55.1843
260 1 66.9408 67.5593 55.8583
675 1 69.0866 64.5316 52.6073
61 2 63.9449 70.4348 56.796
674 1 68.5926 63.4511 51.8405
678 3 68.0333 63.6495 50.9835
258 2 65.6179 65.7856 52.8759
728 3 69.3057 69.769 50.1642
257 1 65.7608 64.5441 53.2286
668 3 68.4605 68.5288 51.8398
56 2 63.722 68.1178 56.4255
671 1 69.9586 66.6254 54.3538
676 1 69.8029 64.2911 53.8913
265 1 67.3088 69.8985 56.2103
60 1 63.5489 69.38 56.0246
673 3 68.2607 66.0112 51.3097
264 3 67.4095 67.4023 56.8234
733 3 69.8613 67.5043 50.0444
724 1 70.2942 69.9819 50.4989
55 1 63.4408 67.0996 55.6036
261 1 66.5297 66.5121 55.0137
259 3 67.2483 64.923 56.42
670 1 69.1637 66.8978 53.1336
666 1 70.1838 68.9013 54.8873
669 1 68.7925 65.8443 52.2331
672 2 70.2217 65.3037 54.6073
738 3 70.3746 65.0858 50.5981
