# LAMMPS data file written by Ovito Basic 3.0.0-dev791
65 atoms
5 atom types
0.0 20.0 xlo xhi
0.0 20.0 ylo yhi
0.0 20.0 zlo zhi

Atoms  # charge

1 1 0.0 11.41977763 11.18123187 10.85577512
2 2 0.0 6.982636508 11.81197795 8.63980969
3 2 0.0 8.08965298 13.8487196 8.038758625
4 2 0.0 5.012384202 10.79781682 4.723478523
5 2 0.0 6.852603525 9.448937707 4.977626519
6 3 0.0 6.205853609 8.636905519 7.433028852
7 4 0.0 7.524778792 12.82460061 8.305288552
8 4 0.0 5.176107788 9.442311308 6.699798743
9 4 0.0 5.759556571 9.986956421 5.347530507
10 4 0.0 7.014167779 13.17479808 13.11050942
11 4 0.0 10.20545306 7.356302635 7.351916628
12 4 0.0 13.61338745 7.217492337 13.62765197
13 4 0.0 13.74340811 15.09997234 13.58765373
14 4 0.0 7.927965326 13.19502851 11.8970724
15 4 0.0 11.12517856 8.527221824 7.658954014
16 4 0.0 12.41957346 8.147611246 13.4964799
17 4 0.0 13.84227425 14.20129959 12.3657485
18 4 0.0 12.5893931 9.120820477 12.3311178
19 4 0.0 11.36547735 10.01472829 12.18526363
20 4 0.0 9.110732646 12.24031265 12.05311365
21 4 0.0 10.75645801 9.201082861 8.980684306
22 4 0.0 12.66288755 13.233652 12.28940116
23 4 0.0 11.70754789 10.34844905 9.305998442
24 4 0.0 9.887341983 12.07268316 10.7494692
25 4 0.0 12.75584827 12.33536358 11.06422137
26 5 0.0 6.860488719 8.391068112 6.668986184
27 5 0.0 6.75783629 9.355226324 7.928200959
28 5 0.0 4.831241275 10.26033217 7.339405409
29 5 0.0 4.327738738 8.793743201 6.462382508
30 5 0.0 9.165974261 7.686135239 7.267283294
31 5 0.0 10.49108825 6.887574887 6.404930569
32 5 0.0 10.26236232 6.595933079 8.137413882
33 5 0.0 6.184361679 13.87466184 12.96782576
34 5 0.0 6.588329658 12.17669709 13.25778099
35 5 0.0 7.552905202 13.46000779 14.01837732
36 5 0.0 13.47117294 6.537631504 14.47349242
37 5 0.0 13.73939139 6.61314241 12.72370414
38 5 0.0 14.53509299 7.783079979 13.79598874
39 5 0.0 13.74787465 14.50943011 14.50926634
40 5 0.0 14.59254894 15.78957476 13.62090726
41 5 0.0 12.82405112 15.69391089 13.56422533
42 5 0.0 7.331701224 12.91771317 11.02554601
43 5 0.0 8.294644665 14.2143777 11.72941259
44 5 0.0 11.06768659 9.254733943 6.840982215
45 5 0.0 12.15962856 8.16650181 7.700313282
46 5 0.0 11.51281726 7.548241806 13.35261943
47 5 0.0 12.29284037 8.706499474 14.43110544
48 5 0.0 14.78383231 13.64151505 12.40385096
49 5 0.0 13.87130862 14.82426712 11.46393345
50 5 0.0 8.751302072 11.25611945 12.37590296
51 5 0.0 9.772875986 12.60677781 12.84403916
52 5 0.0 9.727821113 9.574356044 8.931570891
53 5 0.0 10.78333754 8.461954688 9.78858685
54 5 0.0 12.75189129 8.563520616 11.40212348
55 5 0.0 13.47973203 9.740026653 12.48755926
56 5 0.0 12.62425209 12.61625683 13.19363708
57 5 0.0 11.72846886 13.80385505 12.2528396
58 5 0.0 10.47792691 9.385272498 12.05197841
59 5 0.0 11.21461842 10.55960537 13.1238341
60 5 0.0 9.245297892 11.53338968 10.04989509
61 5 0.0 10.08528915 13.05225118 10.29991485
62 5 0.0 11.66063086 11.09442309 8.503785282
63 5 0.0 12.73567209 9.967963451 9.313029039
64 5 0.0 13.69814534 11.77664272 11.093088
65 5 0.0 12.79910093 12.96310085 10.16592471
