# LAMMPS data file written by Ovito Basic 3.0.0-dev791
1184 atoms
2 atom types
0.0 3.5057981014 xlo xhi
0.0 21.3249378204 ylo yhi
0.0 170.5995025635 zlo zhi

Atoms  # charge

1 1 0.0 0.0 0.0 85.299743652
2 1 0.0 0.0 0.0 106.624679565
3 1 0.0 0.0 0.0 127.949615479
4 1 0.0 0.0 0.0 149.274551392
5 1 0.0 0.0 3.458099365 85.876091003
6 1 0.0 0.0 3.458099365 107.201034546
7 1 0.0 0.0 3.458099365 128.525985718
8 1 0.0 0.0 3.458099365 149.850906372
9 1 0.0 0.0 2.881747484 89.334182739
10 1 0.0 0.0 2.881747484 110.659118652
11 1 0.0 0.0 2.881747484 131.984054565
12 1 0.0 0.0 2.881747484 153.308990479
13 1 0.0 0.0 2.305398226 92.792282104
14 1 0.0 0.0 2.305398226 114.117225647
15 1 0.0 0.0 2.305398226 135.442153931
16 1 0.0 0.0 2.305398226 156.767105103
17 1 0.0 0.0 1.729049087 96.250389099
18 1 0.0 0.0 1.729049087 117.575325012
19 1 0.0 0.0 1.729049087 138.900268555
20 1 0.0 0.0 1.729049087 160.225189209
21 1 0.0 0.0 1.152699828 99.708488464
22 1 0.0 0.0 1.152699828 121.033416748
23 1 0.0 0.0 1.152699828 142.35836792
24 1 0.0 0.0 1.152699828 163.683288574
25 1 0.0 0.0 0.576349258 103.1665802
26 1 0.0 0.0 0.576349258 124.491516113
27 1 0.0 0.0 0.576349258 145.816452026
28 1 0.0 0.0 0.576349258 167.141387939
29 1 0.0 0.0 20.748586655 88.757843018
30 1 0.0 0.0 20.748586655 110.082778931
31 1 0.0 0.0 20.748586655 131.407714844
32 1 0.0 0.0 20.748586655 152.732650757
33 1 0.0 0.0 20.172237396 92.215934753
34 1 0.0 0.0 20.172237396 113.540878296
35 1 0.0 0.0 20.172237396 134.865814209
36 1 0.0 0.0 20.172237396 156.190750122
37 1 0.0 0.0 19.595888138 95.674034119
38 1 0.0 0.0 19.595888138 116.998970032
39 1 0.0 0.0 19.595888138 138.323898315
40 1 0.0 0.0 19.595888138 159.648864746
41 1 0.0 0.0 19.019538879 99.132133484
42 1 0.0 0.0 19.019538879 120.457069397
43 1 0.0 0.0 19.019538879 141.782028198
44 1 0.0 0.0 19.019538879 163.106964111
45 1 0.0 0.0 18.443187714 102.59022522
46 1 0.0 0.0 18.443187714 123.915176392
47 1 0.0 0.0 18.443187714 145.240127563
48 1 0.0 0.0 18.443187714 166.565048218
49 1 0.0 0.0 17.866836548 106.048324585
50 1 0.0 0.0 17.866836548 127.373268127
51 1 0.0 0.0 17.866836548 148.698196411
52 1 0.0 0.0 17.866836548 170.023147583
53 1 0.0 0.0 17.290487289 88.181488037
54 1 0.0 0.0 17.290487289 109.50643158
55 1 0.0 0.0 17.290487289 130.831359863
56 1 0.0 0.0 17.290487289 152.156311035
57 1 0.0 0.0 16.714138031 91.639595032
58 1 0.0 0.0 16.714138031 112.964530945
59 1 0.0 0.0 16.714138031 134.289474487
60 1 0.0 0.0 16.714138031 155.6144104
61 1 0.0 0.0 16.137788773 95.097679138
62 1 0.0 0.0 16.137788773 116.422622681
63 1 0.0 0.0 16.137788773 137.747573853
64 1 0.0 0.0 16.137788773 159.072494507
65 1 0.0 0.0 15.561440468 98.555786133
66 1 0.0 0.0 15.561440468 119.880722046
67 1 0.0 0.0 15.561440468 141.205657959
68 1 0.0 0.0 15.561440468 162.530593872
69 1 0.0 0.0 14.985090256 102.013885498
70 1 0.0 0.0 14.985090256 123.338821411
71 1 0.0 0.0 14.985090256 144.663757324
72 1 0.0 0.0 14.985090256 165.988693237
73 1 0.0 0.0 14.408740997 105.471977234
74 1 0.0 0.0 14.408740997 126.796913147
75 1 0.0 0.0 14.408740997 148.121856689
76 1 0.0 0.0 14.408740997 169.446777344
77 1 0.0 0.0 13.832389832 87.605140686
78 1 0.0 0.0 13.832389832 108.930076599
79 1 0.0 0.0 13.832389832 130.255020142
80 1 0.0 0.0 13.832389832 151.579940796
81 1 0.0 0.0 13.256040573 91.063240051
82 1 0.0 0.0 13.256040573 112.388175964
83 1 0.0 0.0 13.256040573 133.713104248
84 1 0.0 0.0 13.256040573 155.038070679
85 1 0.0 0.0 12.679691315 94.521339417
86 1 0.0 0.0 12.679691315 115.8462677
87 1 0.0 0.0 12.679691315 137.171203613
88 1 0.0 0.0 12.679691315 158.496170044
89 1 0.0 0.0 12.103342056 97.979431152
90 1 0.0 0.0 12.103342056 119.304367065
91 1 0.0 0.0 12.103342056 140.629302979
92 1 0.0 0.0 12.103342056 161.954238892
93 1 0.0 0.0 11.526992798 101.437530518
94 1 0.0 0.0 11.526992798 122.76247406
95 1 0.0 0.0 11.526992798 144.087402344
96 1 0.0 0.0 11.526992798 165.412353516
97 1 0.0 0.0 10.950642586 104.895629883
98 1 0.0 0.0 10.950642586 126.220558167
99 1 0.0 0.0 10.950642586 147.54548645
100 1 0.0 0.0 10.950642586 168.870452881
101 1 0.0 0.0 10.374293327 87.028785706
102 1 0.0 0.0 10.374293327 108.353721619
103 1 0.0 0.0 10.374293327 129.678665161
104 1 0.0 0.0 10.374293327 151.003616333
105 1 0.0 0.0 9.797944069 90.486885071
106 1 0.0 0.0 9.797944069 111.811828613
107 1 0.0 0.0 9.797944069 133.136779785
108 1 0.0 0.0 9.797944069 154.461700439
109 1 0.0 0.0 9.221592903 93.944992065
110 1 0.0 0.0 9.221592903 115.269927979
111 1 0.0 0.0 9.221592903 136.594848633
112 1 0.0 0.0 9.221592903 157.919784546
113 1 0.0 0.0 8.645243645 97.403091431
114 1 0.0 0.0 8.645243645 118.728019714
115 1 0.0 0.0 8.645243645 140.052963257
116 1 0.0 0.0 8.645243645 161.37789917
117 1 0.0 0.0 8.068894386 100.861183167
118 1 0.0 0.0 8.068894386 122.18611908
119 1 0.0 0.0 8.068894386 143.511062622
120 1 0.0 0.0 8.068894386 164.835983276
121 1 0.0 0.0 7.492545605 104.319282532
122 1 0.0 0.0 7.492545605 125.644218445
123 1 0.0 0.0 7.492545605 146.969146729
124 1 0.0 0.0 7.492545605 168.294082642
125 1 0.0 0.0 6.916194916 86.452445984
126 1 0.0 0.0 6.916194916 107.777381897
127 1 0.0 0.0 6.916194916 129.102310181
128 1 0.0 0.0 6.916194916 150.427246094
129 1 0.0 0.0 6.339845657 89.91053772
130 1 0.0 0.0 6.339845657 111.235473633
131 1 0.0 0.0 6.339845657 132.560409546
132 1 0.0 0.0 6.339845657 153.885345459
133 1 0.0 0.0 5.763496399 93.368637085
134 1 0.0 0.0 5.763496399 114.693572998
135 1 0.0 0.0 5.763496399 136.018508911
136 1 0.0 0.0 5.763496399 157.343444824
137 1 0.0 0.0 5.187147617 96.82673645
138 1 0.0 0.0 5.187147617 118.151672363
139 1 0.0 0.0 5.187147617 139.476608276
140 1 0.0 0.0 5.187147617 160.801544189
141 1 0.0 0.0 4.610797882 100.284828186
142 1 0.0 0.0 4.610797882 121.609779358
143 1 0.0 0.0 4.610797882 142.934692383
144 1 0.0 0.0 4.610797882 164.259658813
145 1 0.0 0.0 4.034448624 103.742927551
146 1 0.0 0.0 4.034448624 125.067871094
147 1 0.0 0.0 4.034448624 146.392822266
148 1 0.0 0.0 4.034448624 167.717727661
149 1 0.0 0.0 19.307712555 86.740608215
150 1 0.0 0.0 19.307712555 108.065559387
151 1 0.0 0.0 19.307712555 129.39050293
152 1 0.0 0.0 19.307712555 150.715423584
153 1 0.0 0.0 1.440874457 87.316963196
154 1 0.0 0.0 1.440874457 108.641899109
155 1 0.0 0.0 1.440874457 129.966827393
156 1 0.0 0.0 1.440874457 151.291763306
157 1 0.0 0.0 0.864525199 90.775062561
158 1 0.0 0.0 0.864525199 112.099998474
159 1 0.0 0.0 0.864525199 133.424926758
160 1 0.0 0.0 0.864525199 154.749893188
161 1 0.0 0.0 0.288175911 94.233161926
162 1 0.0 0.0 0.288175911 115.55809021
163 1 0.0 0.0 0.288175911 136.883026123
164 1 0.0 0.0 0.288175911 158.207962036
165 1 0.0 0.0 21.03676033 97.691253662
166 1 0.0 0.0 21.03676033 119.016204834
167 1 0.0 0.0 21.03676033 140.341140747
168 1 0.0 0.0 21.03676033 161.66607666
169 1 0.0 0.0 20.460412979 101.149353027
170 1 0.0 0.0 20.460412979 122.47429657
171 1 0.0 0.0 20.460412979 143.799224854
172 1 0.0 0.0 20.460412979 165.124176025
173 1 0.0 0.0 19.884061813 104.607460022
174 1 0.0 0.0 19.884061813 125.932395935
175 1 0.0 0.0 19.884061813 147.257339478
176 1 0.0 0.0 19.884061813 168.582260132
177 1 0.0 0.0 18.731363297 90.19871521
178 1 0.0 0.0 18.731363297 111.523651123
179 1 0.0 0.0 18.731363297 132.848587036
180 1 0.0 0.0 18.731363297 154.173522949
181 1 0.0 0.0 18.155015945 93.656814575
182 1 0.0 0.0 18.155015945 114.981750488
183 1 0.0 0.0 18.155015945 136.306686401
184 1 0.0 0.0 18.155015945 157.631622314
185 1 0.0 0.0 17.578662872 97.11491394
186 1 0.0 0.0 17.578662872 118.439849854
187 1 0.0 0.0 17.578662872 139.764785767
188 1 0.0 0.0 17.578662872 161.089706421
189 1 0.0 0.0 17.002313614 100.573005676
190 1 0.0 0.0 17.002313614 121.897941589
191 1 0.0 0.0 17.002313614 143.222869873
192 1 0.0 0.0 17.002313614 164.547805786
193 1 0.0 0.0 16.425964355 104.031105042
194 1 0.0 0.0 16.425964355 125.356040955
195 1 0.0 0.0 16.425964355 146.680969238
196 1 0.0 0.0 16.425964355 168.005935669
197 1 0.0 0.0 15.849614143 86.164268494
198 1 0.0 0.0 15.849614143 107.489204407
199 1 0.0 0.0 15.849614143 128.81413269
200 1 0.0 0.0 15.849614143 150.139099121
201 1 0.0 0.0 15.273264885 89.622360229
202 1 0.0 0.0 15.273264885 110.947296143
203 1 0.0 0.0 15.273264885 132.272232056
204 1 0.0 0.0 15.273264885 153.597167969
205 1 0.0 0.0 14.696915627 93.080459595
206 1 0.0 0.0 14.696915627 114.405395508
207 1 0.0 0.0 14.696915627 135.730331421
208 1 0.0 0.0 14.696915627 157.055267334
209 1 0.0 0.0 14.120566368 96.53855896
210 1 0.0 0.0 14.120566368 117.863502502
211 1 0.0 0.0 14.120566368 139.188430786
212 1 0.0 0.0 14.120566368 160.513381958
213 1 0.0 0.0 13.54421711 99.996650696
214 1 0.0 0.0 13.54421711 121.321594238
215 1 0.0 0.0 13.54421711 142.64654541
216 1 0.0 0.0 13.54421711 163.971466064
217 1 0.0 0.0 12.967867851 103.454750061
218 1 0.0 0.0 12.967867851 124.779693604
219 1 0.0 0.0 12.967867851 146.104644775
220 1 0.0 0.0 12.967867851 167.42956543
221 1 0.0 0.0 12.391518593 85.587913513
222 1 0.0 0.0 12.391518593 106.912857056
223 1 0.0 0.0 12.391518593 128.237808228
224 1 0.0 0.0 12.391518593 149.562728882
225 1 0.0 0.0 11.815166473 89.046020508
226 1 0.0 0.0 11.815166473 110.370948792
227 1 0.0 0.0 11.815166473 131.695877075
228 1 0.0 0.0 11.815166473 153.020828247
229 1 0.0 0.0 11.238817215 92.504112244
230 1 0.0 0.0 11.238817215 113.829048157
231 1 0.0 0.0 11.238817215 135.153991699
232 1 0.0 0.0 11.238817215 156.478927612
233 1 0.0 0.0 10.662467957 95.962211609
234 1 0.0 0.0 10.662467957 117.287147522
235 1 0.0 0.0 10.662467957 138.612091064
236 1 0.0 0.0 10.662467957 159.937011719
237 1 0.0 0.0 10.086118698 99.420310974
238 1 0.0 0.0 10.086118698 120.745246887
239 1 0.0 0.0 10.086118698 142.070175171
240 1 0.0 0.0 10.086118698 163.395141602
241 1 0.0 0.0 9.50976944 102.878410339
242 1 0.0 0.0 9.50976944 124.203346252
243 1 0.0 0.0 9.50976944 145.528305054
244 1 0.0 0.0 9.50976944 166.853240967
245 1 0.0 0.0 8.933418274 106.336502075
246 1 0.0 0.0 8.933418274 127.661437988
247 1 0.0 0.0 8.933418274 148.986373901
248 1 0.0 0.0 8.933418274 170.311309814
249 1 0.0 0.0 8.357069016 88.469665527
250 1 0.0 0.0 8.357069016 109.79460144
251 1 0.0 0.0 8.357069016 131.119537354
252 1 0.0 0.0 8.357069016 152.444473267
253 1 0.0 0.0 7.780720234 91.927764893
254 1 0.0 0.0 7.780720234 113.252708435
255 1 0.0 0.0 7.780720234 134.577636719
256 1 0.0 0.0 7.780720234 155.902587891
257 1 0.0 0.0 7.204369545 95.385856628
258 1 0.0 0.0 7.204369545 116.710792542
259 1 0.0 0.0 7.204369545 138.035751343
260 1 0.0 0.0 7.204369545 159.360687256
261 1 0.0 0.0 6.628020287 98.843955994
262 1 0.0 0.0 6.628020287 120.168899536
263 1 0.0 0.0 6.628020287 141.493850708
264 1 0.0 0.0 6.628020287 162.818771362
265 1 0.0 0.0 6.051671028 102.302062988
266 1 0.0 0.0 6.051671028 123.626998901
267 1 0.0 0.0 6.051671028 144.951934814
268 1 0.0 0.0 6.051671028 166.276870728
269 1 0.0 0.0 5.47532177 105.760154724
270 1 0.0 0.0 5.47532177 127.085090637
271 1 0.0 0.0 5.47532177 148.41003418
272 1 0.0 0.0 5.47532177 169.734970093
273 1 0.0 0.0 4.898972034 87.893310547
274 1 0.0 0.0 4.898972034 109.218254089
275 1 0.0 0.0 4.898972034 130.543182373
276 1 0.0 0.0 4.898972034 151.868133545
277 1 0.0 0.0 4.322621822 91.351417542
278 1 0.0 0.0 4.322621822 112.676353455
279 1 0.0 0.0 4.322621822 134.001296997
280 1 0.0 0.0 4.322621822 155.326217651
281 1 0.0 0.0 3.746272802 94.809509277
282 1 0.0 0.0 3.746272802 116.13444519
283 1 0.0 0.0 3.746272802 137.459381104
284 1 0.0 0.0 3.746272802 158.784317017
285 1 0.0 0.0 3.169920921 98.267608643
286 1 0.0 0.0 3.169920921 119.592544556
287 1 0.0 0.0 3.169920921 140.917480469
288 1 0.0 0.0 3.169920921 162.242416382
289 1 0.0 0.0 2.593573332 101.725708008
290 1 0.0 0.0 2.593573332 123.050643921
291 1 0.0 0.0 2.593573332 144.375579834
292 1 0.0 0.0 2.593573332 165.700515747
293 1 0.0 0.0 2.017223597 105.183799744
294 1 0.0 0.0 2.017223597 126.508735657
295 1 0.0 0.0 2.017223597 147.83366394
296 1 0.0 0.0 2.017223597 169.158630371
297 1 0.0 1.752898932 21.03676033 87.028785706
298 1 0.0 1.752898932 21.03676033 108.353721619
299 1 0.0 1.752898932 21.03676033 129.678665161
300 1 0.0 1.752898932 21.03676033 151.003616333
301 1 0.0 1.752898932 3.169923544 87.605140686
302 1 0.0 1.752898932 3.169923544 108.930076599
303 1 0.0 1.752898932 3.169923544 130.255020142
304 1 0.0 1.752898932 3.169923544 151.579940796
305 1 0.0 1.752898932 2.593573332 91.063240051
306 1 0.0 1.752898932 2.593573332 112.388175964
307 1 0.0 1.752898932 2.593573332 133.713104248
308 1 0.0 1.752898932 2.593573332 155.038070679
309 1 0.0 1.752898932 2.017223597 94.521331787
310 1 0.0 1.752898932 2.017223597 115.8462677
311 1 0.0 1.752898932 2.017223597 137.171203613
312 1 0.0 1.752898932 2.017223597 158.496170044
313 1 0.0 1.752898932 1.440874457 97.979431152
314 1 0.0 1.752898932 1.440874457 119.304367065
315 1 0.0 1.752898932 1.440874457 140.629302979
316 1 0.0 1.752898932 1.440874457 161.954238892
317 1 0.0 1.752898932 0.864525199 101.437530518
318 1 0.0 1.752898932 0.864525199 122.76247406
319 1 0.0 1.752898932 0.864525199 144.087402344
320 1 0.0 1.752898932 0.864525199 165.412353516
321 1 0.0 1.752898932 0.288175911 104.895629883
322 1 0.0 1.752898932 0.288175911 126.220558167
323 1 0.0 1.752898932 0.288175911 147.54548645
324 1 0.0 1.752898932 0.288175911 168.870452881
325 1 0.0 1.752898932 20.460411072 90.486885071
326 1 0.0 1.752898932 20.460411072 111.811828613
327 1 0.0 1.752898932 20.460411072 133.136779785
328 1 0.0 1.752898932 20.460411072 154.461700439
329 1 0.0 1.752898932 19.884061813 93.944992065
330 1 0.0 1.752898932 19.884061813 115.269927979
331 1 0.0 1.752898932 19.884061813 136.594848633
332 1 0.0 1.752898932 19.884061813 157.919784546
333 1 0.0 1.752898932 19.307712555 97.403091431
334 1 0.0 1.752898932 19.307712555 118.728019714
335 1 0.0 1.752898932 19.307712555 140.052963257
336 1 0.0 1.752898932 19.307712555 161.37789917
337 1 0.0 1.752898932 18.731363297 100.861183167
338 1 0.0 1.752898932 18.731363297 122.18611908
339 1 0.0 1.752898932 18.731363297 143.511062622
340 1 0.0 1.752898932 18.731363297 164.835983276
341 1 0.0 1.752898932 18.155015945 104.319282532
342 1 0.0 1.752898932 18.155015945 125.644218445
343 1 0.0 1.752898932 18.155015945 146.969146729
344 1 0.0 1.752898932 18.155015945 168.294082642
345 1 0.0 1.752898932 17.578662872 86.452445984
346 1 0.0 1.752898932 17.578662872 107.777381897
347 1 0.0 1.752898932 17.578662872 129.102310181
348 1 0.0 1.752898932 17.578662872 150.427246094
349 1 0.0 1.752898932 17.002313614 89.91053772
350 1 0.0 1.752898932 17.002313614 111.235473633
351 1 0.0 1.752898932 17.002313614 132.560409546
352 1 0.0 1.752898932 17.002313614 153.885345459
353 1 0.0 1.752898932 16.425964355 93.368637085
354 1 0.0 1.752898932 16.425964355 114.693572998
355 1 0.0 1.752898932 16.425964355 136.018508911
356 1 0.0 1.752898932 16.425964355 157.343444824
357 1 0.0 1.752898932 15.849614143 96.82673645
358 1 0.0 1.752898932 15.849614143 118.151672363
359 1 0.0 1.752898932 15.849614143 139.476608276
360 1 0.0 1.752898932 15.849614143 160.801544189
361 1 0.0 1.752898932 15.273264885 100.284828186
362 1 0.0 1.752898932 15.273264885 121.609779358
363 1 0.0 1.752898932 15.273264885 142.934692383
364 1 0.0 1.752898932 15.273264885 164.259658813
365 1 0.0 1.752898932 14.696915627 103.742927551
366 1 0.0 1.752898932 14.696915627 125.067871094
367 1 0.0 1.752898932 14.696915627 146.392822266
368 1 0.0 1.752898932 14.696915627 167.717727661
369 1 0.0 1.752898932 14.120566368 85.876091003
370 1 0.0 1.752898932 14.120566368 107.201034546
371 1 0.0 1.752898932 14.120566368 128.525985718
372 1 0.0 1.752898932 14.120566368 149.850906372
373 1 0.0 1.752898932 13.54421711 89.334182739
374 1 0.0 1.752898932 13.54421711 110.659118652
375 1 0.0 1.752898932 13.54421711 131.984054565
376 1 0.0 1.752898932 13.54421711 153.308990479
377 1 0.0 1.752898932 12.967867851 92.792282104
378 1 0.0 1.752898932 12.967867851 114.117225647
379 1 0.0 1.752898932 12.967867851 135.442153931
380 1 0.0 1.752898932 12.967867851 156.767105103
381 1 0.0 1.752898932 12.391518593 96.250389099
382 1 0.0 1.752898932 12.391518593 117.575325012
383 1 0.0 1.752898932 12.391518593 138.900268555
384 1 0.0 1.752898932 12.391518593 160.225189209
385 1 0.0 1.752898932 11.815166473 99.708488464
386 1 0.0 1.752898932 11.815166473 121.033416748
387 1 0.0 1.752898932 11.815166473 142.35836792
388 1 0.0 1.752898932 11.815166473 163.683288574
389 1 0.0 1.752898932 11.238817215 103.1665802
390 1 0.0 1.752898932 11.238817215 124.491523743
391 1 0.0 1.752898932 11.238817215 145.816452026
392 1 0.0 1.752898932 11.238817215 167.141387939
393 1 0.0 1.752898932 10.662467957 85.299743652
394 1 0.0 1.752898932 10.662467957 106.624679565
395 1 0.0 1.752898932 10.662467957 127.949615479
396 1 0.0 1.752898932 10.662467957 149.274551392
397 1 0.0 1.752898932 10.086118698 88.757843018
398 1 0.0 1.752898932 10.086118698 110.082778931
399 1 0.0 1.752898932 10.086118698 131.407714844
400 1 0.0 1.752898932 10.086118698 152.732650757
401 1 0.0 1.752898932 9.50976944 92.215934753
402 1 0.0 1.752898932 9.50976944 113.540878296
403 1 0.0 1.752898932 9.50976944 134.865814209
404 1 0.0 1.752898932 9.50976944 156.190750122
405 1 0.0 1.752898932 8.933418274 95.674034119
406 1 0.0 1.752898932 8.933418274 116.998970032
407 1 0.0 1.752898932 8.933418274 138.323898315
408 1 0.0 1.752898932 8.933418274 159.648864746
409 1 0.0 1.752898932 8.357069016 99.132133484
410 1 0.0 1.752898932 8.357069016 120.457069397
411 1 0.0 1.752898932 8.357069016 141.782028198
412 1 0.0 1.752898932 8.357069016 163.106964111
413 1 0.0 1.752898932 7.780720234 102.59022522
414 1 0.0 1.752898932 7.780720234 123.915176392
415 1 0.0 1.752898932 7.780720234 145.240127563
416 1 0.0 1.752898932 7.780720234 166.565048218
417 1 0.0 1.752898932 7.204370975 106.048324585
418 1 0.0 1.752898932 7.204370975 127.373268127
419 1 0.0 1.752898932 7.204370975 148.698196411
420 1 0.0 1.752898932 7.204370975 170.023147583
421 1 0.0 1.752898932 6.628020287 88.181488037
422 1 0.0 1.752898932 6.628020287 109.50643158
423 1 0.0 1.752898932 6.628020287 130.831359863
424 1 0.0 1.752898932 6.628020287 152.156311035
425 1 0.0 1.752898932 6.051671028 91.639595032
426 1 0.0 1.752898932 6.051671028 112.964530945
427 1 0.0 1.752898932 6.051671028 134.289474487
428 1 0.0 1.752898932 6.051671028 155.6144104
429 1 0.0 1.752898932 5.47532177 95.097679138
430 1 0.0 1.752898932 5.47532177 116.422622681
431 1 0.0 1.752898932 5.47532177 137.747573853
432 1 0.0 1.752898932 5.47532177 159.072494507
433 1 0.0 1.752898932 4.898972034 98.555786133
434 1 0.0 1.752898932 4.898972034 119.880722046
435 1 0.0 1.752898932 4.898972034 141.205657959
436 1 0.0 1.752898932 4.898972034 162.530593872
437 1 0.0 1.752898932 4.322621822 102.013885498
438 1 0.0 1.752898932 4.322621822 123.338821411
439 1 0.0 1.752898932 4.322621822 144.663757324
440 1 0.0 1.752898932 4.322621822 165.988693237
441 1 0.0 1.752898932 3.746272802 105.471977234
442 1 0.0 1.752898932 3.746272802 126.796913147
443 1 0.0 1.752898932 3.746272802 148.121856689
444 1 0.0 1.752898932 3.746272802 169.446777344
445 1 0.0 1.752898932 19.595888138 106.336502075
446 1 0.0 1.752898932 19.595888138 127.661437988
447 1 0.0 1.752898932 19.595888138 148.986373901
448 1 0.0 1.752898932 19.595888138 170.311309814
449 1 0.0 1.752898932 1.729049087 85.587913513
450 1 0.0 1.752898932 1.729049087 106.912857056
451 1 0.0 1.752898932 1.729049087 128.237808228
452 1 0.0 1.752898932 1.729049087 149.562728882
453 1 0.0 1.752898932 1.152698517 89.046005249
454 1 0.0 1.752898932 1.152698517 110.370948792
455 1 0.0 1.752898932 1.152698517 131.695877075
456 1 0.0 1.752898932 1.152698517 153.020828247
457 1 0.0 1.752898932 0.576349258 92.504112244
458 1 0.0 1.752898932 0.576349258 113.829048157
459 1 0.0 1.752898932 0.576349258 135.153991699
460 1 0.0 1.752898932 0.576349258 156.478927612
461 1 0.0 1.752898932 0.0 95.962211609
462 1 0.0 1.752898932 0.0 117.287147522
463 1 0.0 1.752898932 0.0 138.612091064
464 1 0.0 1.752898932 0.0 159.937011719
465 1 0.0 1.752898932 20.748586655 99.420310974
466 1 0.0 1.752898932 20.748586655 120.745246887
467 1 0.0 1.752898932 20.748586655 142.070175171
468 1 0.0 1.752898932 20.748586655 163.395141602
469 1 0.0 1.752898932 20.172237396 102.878410339
470 1 0.0 1.752898932 20.172237396 124.203346252
471 1 0.0 1.752898932 20.172237396 145.528305054
472 1 0.0 1.752898932 20.172237396 166.853240967
473 1 0.0 1.752898932 19.019538879 88.469665527
474 1 0.0 1.752898932 19.019538879 109.79460144
475 1 0.0 1.752898932 19.019538879 131.119537354
476 1 0.0 1.752898932 19.019538879 152.444473267
477 1 0.0 1.752898932 18.443187714 91.927764893
478 1 0.0 1.752898932 18.443187714 113.252708435
479 1 0.0 1.752898932 18.443187714 134.577636719
480 1 0.0 1.752898932 18.443187714 155.902587891
481 1 0.0 1.752898932 17.866836548 95.385856628
482 1 0.0 1.752898932 17.866836548 116.710792542
483 1 0.0 1.752898932 17.866836548 138.035751343
484 1 0.0 1.752898932 17.866836548 159.360687256
485 1 0.0 1.752898932 17.290487289 98.843955994
486 1 0.0 1.752898932 17.290487289 120.168899536
487 1 0.0 1.752898932 17.290487289 141.493850708
488 1 0.0 1.752898932 17.290487289 162.818771362
489 1 0.0 1.752898932 16.714138031 102.302062988
490 1 0.0 1.752898932 16.714138031 123.626998901
491 1 0.0 1.752898932 16.714138031 144.951934814
492 1 0.0 1.752898932 16.714138031 166.276870728
493 1 0.0 1.752898932 16.137788773 105.760154724
494 1 0.0 1.752898932 16.137788773 127.085098267
495 1 0.0 1.752898932 16.137788773 148.41003418
496 1 0.0 1.752898932 16.137788773 169.734970093
497 1 0.0 1.752898932 15.561439514 87.893310547
498 1 0.0 1.752898932 15.561439514 109.218254089
499 1 0.0 1.752898932 15.561439514 130.543182373
500 1 0.0 1.752898932 15.561439514 151.868133545
501 1 0.0 1.752898932 14.985090256 91.351417542
502 1 0.0 1.752898932 14.985090256 112.676353455
503 1 0.0 1.752898932 14.985090256 134.001296997
504 1 0.0 1.752898932 14.985090256 155.326217651
505 1 0.0 1.752898932 14.408740997 94.809509277
506 1 0.0 1.752898932 14.408740997 116.13444519
507 1 0.0 1.752898932 14.408740997 137.459381104
508 1 0.0 1.752898932 14.408740997 158.784317017
509 1 0.0 1.752898932 13.832391739 98.267608643
510 1 0.0 1.752898932 13.832391739 119.592544556
511 1 0.0 1.752898932 13.832391739 140.917480469
512 1 0.0 1.752898932 13.832391739 162.242416382
513 1 0.0 1.752898932 13.256040573 101.725708008
514 1 0.0 1.752898932 13.256040573 123.050643921
515 1 0.0 1.752898932 13.256040573 144.375579834
516 1 0.0 1.752898932 13.256040573 165.700515747
517 1 0.0 1.752898932 12.679691315 105.183799744
518 1 0.0 1.752898932 12.679691315 126.508735657
519 1 0.0 1.752898932 12.679691315 147.83366394
520 1 0.0 1.752898932 12.679691315 169.158630371
521 1 0.0 1.752898932 12.103342056 87.316963196
522 1 0.0 1.752898932 12.103342056 108.641899109
523 1 0.0 1.752898932 12.103342056 129.966827393
524 1 0.0 1.752898932 12.103342056 151.291763306
525 1 0.0 1.752898932 11.526991844 90.775062561
526 1 0.0 1.752898932 11.526991844 112.099998474
527 1 0.0 1.752898932 11.526991844 133.424926758
528 1 0.0 1.752898932 11.526991844 154.749893188
529 1 0.0 1.752898932 10.950642586 94.233161926
530 1 0.0 1.752898932 10.950642586 115.558105469
531 1 0.0 1.752898932 10.950642586 136.883056641
532 1 0.0 1.752898932 10.950642586 158.207962036
533 1 0.0 1.752898932 10.374293327 97.691268921
534 1 0.0 1.752898932 10.374293327 119.016204834
535 1 0.0 1.752898932 10.374293327 140.341140747
536 1 0.0 1.752898932 10.374293327 161.66607666
537 1 0.0 1.752898932 9.797944069 101.149353027
538 1 0.0 1.752898932 9.797944069 122.47429657
539 1 0.0 1.752898932 9.797944069 143.799224854
540 1 0.0 1.752898932 9.797944069 165.124176025
541 1 0.0 1.752898932 9.221592903 104.607460022
542 1 0.0 1.752898932 9.221592903 125.932395935
543 1 0.0 1.752898932 9.221592903 147.257339478
544 1 0.0 1.752898932 9.221592903 168.582260132
545 1 0.0 1.752898932 8.645243645 86.740623474
546 1 0.0 1.752898932 8.645243645 108.065559387
547 1 0.0 1.752898932 8.645243645 129.39050293
548 1 0.0 1.752898932 8.645243645 150.715423584
549 1 0.0 1.752898932 8.068894386 90.19871521
550 1 0.0 1.752898932 8.068894386 111.523651123
551 1 0.0 1.752898932 8.068894386 132.848587036
552 1 0.0 1.752898932 8.068894386 154.173522949
553 1 0.0 1.752898932 7.492544651 93.656814575
554 1 0.0 1.752898932 7.492544651 114.981750488
555 1 0.0 1.752898932 7.492544651 136.306686401
556 1 0.0 1.752898932 7.492544651 157.631622314
557 1 0.0 1.752898932 6.916194916 97.11491394
558 1 0.0 1.752898932 6.916194916 118.439849854
559 1 0.0 1.752898932 6.916194916 139.764785767
560 1 0.0 1.752898932 6.916194916 161.089706421
561 1 0.0 1.752898932 6.339845657 100.573005676
562 1 0.0 1.752898932 6.339845657 121.897941589
563 1 0.0 1.752898932 6.339845657 143.222869873
564 1 0.0 1.752898932 6.339845657 164.547805786
565 1 0.0 1.752898932 5.763496399 104.031105042
566 1 0.0 1.752898932 5.763496399 125.356040955
567 1 0.0 1.752898932 5.763496399 146.680969238
568 1 0.0 1.752898932 5.763496399 168.005935669
569 1 0.0 1.752898932 5.187147617 86.164268494
570 1 0.0 1.752898932 5.187147617 107.489204407
571 1 0.0 1.752898932 5.187147617 128.81413269
572 1 0.0 1.752898932 5.187147617 150.139099121
573 1 0.0 1.752898932 4.610797882 89.622360229
574 1 0.0 1.752898932 4.610797882 110.947296143
575 1 0.0 1.752898932 4.610797882 132.272232056
576 1 0.0 1.752898932 4.610797882 153.597167969
577 1 0.0 1.752898932 4.034448624 93.080459595
578 1 0.0 1.752898932 4.034448624 114.405395508
579 1 0.0 1.752898932 4.034448624 135.730331421
580 1 0.0 1.752898932 4.034448624 157.055267334
581 1 0.0 1.752898932 3.458096981 96.53855896
582 1 0.0 1.752898932 3.458096981 117.863502502
583 1 0.0 1.752898932 3.458096981 139.188430786
584 1 0.0 1.752898932 3.458096981 160.513381958
585 1 0.0 1.752898932 2.881747484 99.996650696
586 1 0.0 1.752898932 2.881747484 121.321594238
587 1 0.0 1.752898932 2.881747484 142.64654541
588 1 0.0 1.752898932 2.881747484 163.971466064
589 1 0.0 1.752898932 2.305398226 103.454750061
590 1 0.0 1.752898932 2.305398226 124.779693604
591 1 0.0 1.752898932 2.305398226 146.104644775
592 1 0.0 1.752898932 2.305398226 167.42956543
593 2 0.0 0.0 0.0 0.0
594 2 0.0 0.0 0.0 21.324935913
595 2 0.0 0.0 0.0 42.649871826
596 2 0.0 0.0 0.0 63.974807739
597 2 0.0 0.0 17.866836548 0.576349616
598 2 0.0 0.0 17.866836548 21.901285172
599 2 0.0 0.0 17.866836548 43.226222992
600 2 0.0 0.0 17.866836548 64.55115509
601 2 0.0 0.0 18.443187714 4.034447193
602 2 0.0 0.0 18.443187714 25.359382629
603 2 0.0 0.0 18.443187714 46.684318542
604 2 0.0 0.0 18.443187714 68.009254456
605 2 0.0 0.0 19.019538879 7.492545128
606 2 0.0 0.0 19.019538879 28.817481995
607 2 0.0 0.0 19.019538879 50.142414093
608 2 0.0 0.0 19.019538879 71.467346191
609 2 0.0 0.0 19.595888138 10.950642586
610 2 0.0 0.0 19.595888138 32.275577545
611 2 0.0 0.0 19.595888138 53.600517273
612 2 0.0 0.0 19.595888138 74.925453186
613 2 0.0 0.0 20.172237396 14.408740997
614 2 0.0 0.0 20.172237396 35.733673096
615 2 0.0 0.0 20.172237396 57.058612823
616 2 0.0 0.0 20.172237396 78.383552551
617 2 0.0 0.0 20.748586655 17.866836548
618 2 0.0 0.0 20.748586655 39.191776276
619 2 0.0 0.0 20.748586655 60.516708374
620 2 0.0 0.0 20.748586655 81.841644287
621 2 0.0 0.0 0.576349616 3.458097458
622 2 0.0 0.0 0.576349616 24.783033371
623 2 0.0 0.0 0.576349616 46.107967377
624 2 0.0 0.0 0.576349616 67.432907104
625 2 0.0 0.0 1.152699232 6.916194916
626 2 0.0 0.0 1.152699232 28.241132736
627 2 0.0 0.0 1.152699232 49.566066742
628 2 0.0 0.0 1.152699232 70.891014099
629 2 0.0 0.0 1.729048729 10.374293327
630 2 0.0 0.0 1.729048729 31.699228287
631 2 0.0 0.0 1.729048729 53.024162292
632 2 0.0 0.0 1.729048729 74.349098206
633 2 0.0 0.0 2.305398464 13.832389832
634 2 0.0 0.0 2.305398464 35.157325745
635 2 0.0 0.0 2.305398464 56.482265472
636 2 0.0 0.0 2.305398464 77.8072052
637 2 0.0 0.0 2.881747961 17.290487289
638 2 0.0 0.0 2.881747961 38.61542511
639 2 0.0 0.0 2.881747961 59.940361023
640 2 0.0 0.0 2.881747961 81.265296936
641 2 0.0 0.0 3.458097458 20.748586655
642 2 0.0 0.0 3.458097458 42.07352066
643 2 0.0 0.0 3.458097458 63.398456573
644 2 0.0 0.0 3.458097458 84.723388672
645 2 0.0 0.0 4.034447193 2.881747961
646 2 0.0 0.0 4.034447193 24.206684113
647 2 0.0 0.0 4.034447193 45.531620026
648 2 0.0 0.0 4.034447193 66.856552124
649 2 0.0 0.0 4.610796928 6.339845657
650 2 0.0 0.0 4.610796928 27.664779663
651 2 0.0 0.0 4.610796928 48.989715576
652 2 0.0 0.0 4.610796928 70.314651489
653 2 0.0 0.0 5.187146664 9.797944069
654 2 0.0 0.0 5.187146664 31.122879028
655 2 0.0 0.0 5.187146664 52.447814941
656 2 0.0 0.0 5.187146664 73.772750854
657 2 0.0 0.0 5.763495922 13.256040573
658 2 0.0 0.0 5.763495922 34.580974579
659 2 0.0 0.0 5.763495922 55.905914307
660 2 0.0 0.0 5.763495922 77.23085022
661 2 0.0 0.0 6.339845657 16.714138031
662 2 0.0 0.0 6.339845657 38.039077759
663 2 0.0 0.0 6.339845657 59.364009857
664 2 0.0 0.0 6.339845657 80.688949585
665 2 0.0 0.0 6.916194916 20.172237396
666 2 0.0 0.0 6.916194916 41.497173309
667 2 0.0 0.0 6.916194916 62.822109222
668 2 0.0 0.0 6.916194916 84.147041321
669 2 0.0 0.0 7.492545128 2.305398464
670 2 0.0 0.0 7.492545128 23.630334854
671 2 0.0 0.0 7.492545128 44.95526886
672 2 0.0 0.0 7.492545128 66.280204773
673 2 0.0 0.0 8.068894386 5.763495922