LAMMPS data file via write_data, version 22 Dec 2022, timestep = 4000

2228 atoms
3 atom types

0 24.3869 xlo xhi
0 21.1196749196 ylo yhi
0 89.8016 zlo zhi

Masses

1 52
2 55.84
3 16

Atoms # charge

22 2 0.03271145142222487 4.0644 2.3466 0.8298 0 0 0
27 2 0.0575640749589625 6.0966 3.52 0 0 0 0
32 2 0.02857962338693675 6.0966 3.52 2.4893 0 0 0
68 2 0.02934536687970792 0.0001 2.3466 0.8298 0 0 0
73 1 0.07382241323420694 2.0323 3.52 0 0 0 0
78 2 0.02354021074812905 2.0323 3.52 2.4893 0 0 0
83 2 0.02975470539003226 4.0646 4.6932 1.6595 0 0 0
88 2 0.03280191069178762 3.7953202349248674 4.598658983003397 4.140778762757714 0 0 0
93 2 0.03160391472593575 6.0967 5.8666 3.3191 0 0 0
130 1 0.0451780194248702 0 4.6932 1.6595 0 0 0
140 2 0.03191439412365334 2.0322 5.8666 3.3191 0 0 0
145 2 0.02835363285585839 2.0861927537528877 5.832878998661616 5.580042339991208 0 0 0
348 2 0.05356261847220971 4.0646 0 0 0 0 0
353 1 0.0472097279358588 4.0646 0 2.4893 0 0 0
358 2 0.02338840137766951 6.0967 1.1734 1.6595 0 0 0
395 2 0.05625867734061227 0 0 0 0 0 0
400 1 0.04417638581440839 0 0 2.4893 0 0 0
405 2 0.0257899541417254 2.0322 1.1734 1.6595 0 0 0
410 2 0.0278546364158648 2.0730030100986845 1.096443186712683 4.132208347178699 0 0 0
415 2 0.03003143961327551 4.0644 2.3466 3.3191 0 0 0
420 2 0.03173509953809963 3.9804320721513133 2.254115823842715 5.831320309544004 0 0 0
461 2 0.02684654256953886 0.0001 2.3466 3.3191 0 0 0
470 2 0.03213414657774016 1.8508725926025342 3.355978679639407 4.7482513750906215 0 0 0
1681 2 0.03546916550509477 6.0967 5.8666 0.8298 0 0 0
1727 2 0.02817466981520835 2.0322 5.8666 0.8298 0 0 0
1732 2 0.05718941832584006 4.0644 7.0398 0 0 0 0
1737 2 0.02449425554073779 4.0644 7.0398 2.4893 0 0 0
1778 2 0.05584887441603366 0.0001 7.0398 0 0 0 0
1783 2 0.02465609360950628 0.0001 7.0398 2.4893 0 0 0
98 1 0.05330126516823931 6.041154265404212 5.730870046034514 5.802973172342896 0 0 0
745 2 0.02969785071924391 4.094770017035194 21.02285414592952 5.05197743981862 0 -1 0
363 2 0.02973318876904997 6.044544249425897 1.1960389532172166 3.9434863655785586 0 0 0
424 2 0.02936240730545076 5.862178830577185 3.441233843810217 4.876193299655813 0 0 0
135 2 0.02638386400644593 0.04267993659191305 4.90735086551562 4.07958617723031 0 0 0
790 1 0.04838630556508185 24.328688798352644 21.044448626959515 4.7924270744830135 -1 -1 0
37 2 0.02882974648269496 8.1289 4.6932 1.6595 0 0 0
42 2 0.02871158604858803 8.069829769213014 4.66553502728898 4.120621264879763 0 0 0
47 1 0.04564076773476171 10.1613 5.8666 3.3191 0 0 0
52 1 0.04796418691666474 10.070235814507416 5.936608944468586 5.650677758498417 0 0 0
306 2 0.03408656264881095 8.129 2.3466 0.8298 0 0 0
311 2 0.05859548097579047 10.1612 3.52 0 0 0 0
316 2 0.02525110240286658 10.1612 3.52 2.4893 0 0 0
368 2 0.03398443902599953 8.129 2.3466 3.3191 0 0 0
373 2 0.02950305367136185 8.00339134883318 2.096060994886293 5.610580441387436 0 0 0
377 2 0.02792777128048133 10.050329080526033 3.4445136511943235 4.93853490309618 0 0 0
632 1 0.06997697800293087 8.1289 0 0 0 0 0
637 2 0.02467101943987913 8.1289 0 2.4893 0 0 0
642 2 0.0254139635909509 10.161 1.1734 1.6595 0 0 0
647 2 0.02718748617482761 10.092566972306924 1.0216422527503637 4.112623590850552 0 0 0
1686 2 0.05748654277012563 8.129 7.0398 0 0 0 0
1691 2 0.02514696078546925 8.129 7.0398 2.4893 0 0 0
1966 2 0.03435017939289821 10.1613 5.8666 0.8298 0 0 0
699 2 0.02924739347728768 8.136782953109813 0.030078915048386674 4.776121631809537 0 0 0
657 2 0.0254981121970085 12.06378462842007 2.403446202345579 5.551905146366809 0 0 0
102 2 0.0256715442180742 8.028582138984548 7.063533048134324 4.816462293846962 0 0 0
326 2 0.02785505700650994 12.101237115571054 4.6689392500009586 4.139715222288346 0 0 0
166 2 0.05531747141586268 18.2901 3.52 0 0 0 0
171 2 0.02739554390478941 18.2901 3.52 2.4893 0 0 0
216 2 0.03279941532723602 16.2579 2.3466 0.8298 0 0 0
221 2 0.02575024582843333 16.258 4.6932 1.6595 0 0 0
226 2 0.03138494574195843 16.140435207458403 4.484869433545347 3.914658202275874 0 0 0
261 2 0.03012880185369533 12.1936 2.3466 0.8298 0 0 0
266 2 0.05513631058327731 14.2257 3.52 0 0 0 0
271 1 0.04177190802134138 14.2257 3.52 2.4893 0 0 0
276 2 0.03084311679493237 14.2256 5.8666 3.3191 0 0 0
281 2 0.02954230446099159 14.308234120391278 5.544037651842163 5.637866595561254 0 0 0
321 2 0.02708074494444963 12.1935 4.6932 1.6595 0 0 0
541 2 0.05609546767106892 16.258 0 0 0 0 0
546 2 0.02767945499043437 16.258 0 2.4893 0 0 0
551 2 0.028799392495529 16.2579 2.3466 3.3191 0 0 0
556 2 0.02840336032088719 16.276261662534274 2.179660261796577 5.777372769819329 0 0 0
586 2 0.05196232057254813 12.1935 0 0 0 0 0
591 1 0.03952339034407926 12.1935 0 2.4893 0 0 0
596 1 0.04310149334667408 14.2256 1.1734 1.6595 0 0 0
601 2 0.02381590945272125 14.170238089205103 1.1294882695238395 4.105984103917598 0 0 0
606 2 0.02631888497654498 14.255101921351198 3.2762598493103288 4.9901860326259655 0 0 0
652 1 0.04670278534466367 12.1936 2.3466 3.3191 0 0 0
1871 2 0.05296065197794782 16.2579 7.0398 0 0 0 0
1876 2 0.02237768669408476 16.2579 7.0398 2.4893 0 0 0
1921 2 0.03349945502622331 14.2256 5.8666 0.8298 0 0 0
1971 2 0.05706872263808105 12.1936 7.0398 0 0 0 0
1976 2 0.02296522952867937 12.1936 7.0398 2.4893 0 0 0
982 2 0.02545120705868511 12.222333903159669 0.25331186325228017 5.01722078199612 0 0 0
501 2 0.0279889330227527 18.22006178636064 1.2000432572822688 4.012694126104339 0 0 0
560 2 0.03181324219189448 18.20769479649817 3.2883121153275083 4.902411812819964 0 0 0
1 2 0.0279262916573867 12.2953113575232 6.944352653293464 4.876842334278713 0 0 0
285 2 0.0334323573776627 16.28159099404372 7.1216676374731 4.88820682582591 0 0 0
195 2 0.0280370645719055 0.10113932686209867 7.205476450339758 4.966671690017683 0 0 0
466 2 0.02892384685277614 24.376158342331703 2.3234264229568597 5.719704823126501 -1 0 0
236 2 0.03027082330679924 18.298343645046874 5.680882614204034 5.713260277760592 0 0 0
115 2 0.03553436366844348 20.3225 2.3466 0.8298 0 0 0
120 2 0.0541402669994583 22.3546 3.52 0 0 0 0
125 1 0.04606277905807852 22.3546 3.52 2.4893 0 0 0
176 2 0.02547072199655374 20.3223 4.6932 1.6595 0 0 0
181 2 0.03188357978432566 20.343867125695166 4.736373296162536 4.084318047922696 0 0 0
186 2 0.02747796718282391 22.3547 5.8666 3.3191 0 0 0
191 1 0.048596705812185 22.44408321842514 6.046917027286218 5.801228648856508 0 0 0
231 2 0.03086233813116947 18.2902 5.8666 3.3191 0 0 0
441 2 0.05746128219132132 20.3223 0 0 0 0 0
446 2 0.02634983009241332 20.3223 0 2.4893 0 0 0
451 2 0.02682448905832813 22.3545 1.1734 1.6595 0 0 0
456 2 0.02458968556262876 22.417450963732232 1.2186536848349634 4.163894557533627 0 0 0
496 2 0.03019477977720079 18.2902 1.1734 1.6595 0 0 0
506 2 0.02784894132061412 20.3225 2.3466 3.3191 0 0 0
511 2 0.03026358132357661 20.103087216829707 2.4902976656590434 5.709037756933266 0 0 0
515 2 0.02992374650639206 22.367077677586533 3.4330300262138915 4.993915105786952 0 0 0
1773 2 0.03330438102160023 22.3547 5.8666 0.8298 0 0 0
1820 1 0.05122312797424651 18.2902 5.8666 0.8298 0 0 0
1825 2 0.05388774971007242 20.3225 7.0398 0 0 0 0
1830 2 0.02601959174886627 20.3225 7.0398 2.4893 0 0 0
149 2 0.03095994208765537 4.165841988078055 7.185788183993738 5.0306934546739415 0 0 0
1406 2 0.02848147913031762 4.0646 9.3864 0.8298 0 0 0
1411 2 0.05573026120873813 6.0967 10.5598 0 0 0 0
1416 2 0.02305558274891564 6.0967 10.5598 2.4893 0 0 0
1452 2 0.03077210347870946 0 9.3864 0.8298 0 0 0
1457 1 0.07368519528792683 2.0322 10.5598 0 0 0 0
1462 2 0.02059232367711018 2.0322 10.5598 2.4893 0 0 0
1742 2 0.03024324854238226 6.0966 8.2132 1.6595 0 0 0
1788 1 0.04721785864195776 2.0323 8.2132 1.6595 0 0 0
1793 2 0.02769436816491324 1.9532808784043534 8.356348881042427 4.19022608809189 0 0 0
1798 1 0.04945764589557376 4.0646 9.3864 3.3191 0 0 0
1803 2 0.0243338237325563 3.889346313163254 9.295216337514743 5.683726391320133 0 0 0
1845 2 0.02944532980079556 0 9.3864 3.3191 0 0 0
1850 2 0.02804520367605902 0.02902582468971921 9.406943970558215 5.772349871227085 0 0 0
1854 2 0.03024950947348539 2.0427690058612953 10.564628337477627 4.927503704635951 0 0 0
1131 2 0.03515363452678807 2.0323 12.9064 0.8298 0 0 0
1467 2 0.02698508829237707 4.0643 11.7332 1.6595 0 0 0
1472 2 0.02636016032100698 3.8756635238784467 11.696325155592755 4.029199111699052 0 0 0
1513 2 0.02474382713463034 0 11.7332 1.6595 0 0 0
1523 2 0.03479520588806937 2.0323 12.9064 3.3191 0 0 0
1528 2 0.02789087247917552 1.957278596874832 12.873426579881059 5.886100632036524 0 0 0
1807 1 0.0499138993112058 6.114395382239115 10.549711432889167 5.000016125738558 0 0 0
1747 2 0.02687586797411793 6.068013936443861 8.210411555597839 4.006794273027649 0 0 0
1482 2 0.0202318290360497 5.989763811573302 12.907771477439198 5.695676290070347 0 0 0
1361 2 0.03414792956696938 8.1291 9.3864 0.8298 0 0 0
1366 1 0.074669019823182 10.1613 10.5598 0 0 0 0
1371 2 0.02306973242351536 10.1613 10.5598 2.4893 0 0 0
1696 2 0.02654758484062952 10.1612 8.2132 1.6595 0 0 0
1701 1 0.04738893348494933 10.195042117119314 8.211989755066192 4.15706973916856 0 0 0
1706 2 0.0257679161151248 10.208947261553382 10.529007984666183 4.862776738864241 0 0 0
1752 2 0.0307345874764138 8.1291 9.3864 3.3191 0 0 0
1757 2 0.0243353954057905 8.220595155816286 9.396666188026597 5.554894063328553 0 0 0
1041 2 0.03108438723461002 10.1612 12.9064 0.8298 0 0 0
1086 1 0.05484163539441447 6.0968 12.9064 0.8298 0 0 0
1376 1 0.05124924632920527 10.1612 12.9064 3.3191 0 0 0
1381 1 0.04544670263831453 10.264361941762566 12.910981887971921 5.762949777330995 0 0 0
1421 2 0.02605500734545612 8.1289 11.7332 1.6595 0 0 0
1426 2 0.02672987173248645 7.974403087539341 11.502499809464409 4.086039690038719 0 0 0
1477 2 0.0290457745299346 6.0968 12.9064 3.3191 0 0 0
1431 2 0.02648042817625183 8.075755328238174 13.938392997002707 4.9147096086760484 0 0 0
1656 2 0.03119860715034284 12.282397908562036 9.462206660831649 5.704328308909643 0 0 0
1326 2 0.03020541277835533 12.193265289489783 11.854412729344062 4.017803323640118 0 0 0
1545 2 0.03107474973170704 16.258 9.3864 0.8298 0 0 0
1596 2 0.05700112787442742 14.2256 10.5598 0 0 0 0
1601 2 0.0279299672297801 14.2256 10.5598 2.4893 0 0 0
1646 2 0.03075186777670244 12.1935 9.3864 0.8298 0 0 0
1651 2 0.03108024240966879 12.1935 9.3864 3.3191 0 0 0
1660 2 0.0278230212424164 14.250330720374581 10.448893603933016 5.026323073509831 0 0 0
1881 1 0.04572041996612494 18.2901 8.2132 1.6595 0 0 0
1886 2 0.02810354623688139 18.359157624110548 8.369592978711577 4.091473897743202 0 0 0
1926 1 0.04828429124143969 14.2257 8.2132 1.6595 0 0 0
1931 2 0.0306607590754717 14.281240712227127 8.142567132415186 4.142166127792607 0 0 0
1936 2 0.0318612646769927 16.258 9.3864 3.3191 0 0 0
1941 2 0.0255513529252519 16.14927594284034 9.332834380793463 5.729249385010008 0 0 0
1270 2 0.03064936332180462 14.2257 12.9064 0.8298 0 0 0
1321 2 0.02877925600268821 12.1935 11.7332 1.6595 0 0 0
1331 2 0.0289188474956749 14.2257 12.9064 3.3191 0 0 0
1336 1 0.04565871616074761 14.107861053751755 12.838530358369646 5.801957522906409 0 0 0
1606 2 0.02771530134073858 16.2578 11.7332 1.6595 0 0 0
1611 2 0.03066989946995227 16.236301922026318 11.961691663093267 4.067414078928423 0 0 0
1945 2 0.0301607636764212 18.283280979959414 10.599500873858583 4.910198765088458 0 0 0
1621 2 0.02763048846606548 18.454760812387953 12.928254133244216 5.741078648733416 0 0 0
1518 2 0.02872380024205464 0.16114165490874247 11.731711351071171 4.0485518578726385 0 0 0
240 2 0.02872026546568144 20.240920215986076 6.9926403236692645 4.909425384540796 0 0 0
1498 2 0.03353238547358019 20.3226 9.3864 0.8298 0 0 0
1503 2 0.05404261183639006 22.3547 10.5598 0 0 0 0
1508 1 0.04022131272499226 22.3547 10.5598 2.4893 0 0 0
1550 2 0.05689178193202593 18.2902 10.5598 0 0 0 0
1555 2 0.026351148255592 18.2902 10.5598 2.4893 0 0 0
1835 2 0.03032839920338763 22.3546 8.2132 1.6595 0 0 0
1840 2 0.02933332786363536 22.36278070340601 8.090064258889834 4.047433890426137 0 0 0
1891 2 0.02681933466100288 20.3226 9.3864 3.3191 0 0 0
1896 2 0.02901491951198138 20.45372178616615 9.610862040614762 5.757020389976203 0 0 0
1900 1 0.04361478772423952 22.394784582800884 10.535955458204961 4.806170618357255 0 0 0
1177 1 0.04989135686287595 22.3546 12.9064 0.8298 0 0 0
1223 2 0.03520476282975252 18.2903 12.9064 0.8298 0 0 0
1560 2 0.02511855193819583 20.3223 11.7332 1.6595 0 0 0
1565 1 0.04285878348484219 20.317110165913665 11.710525087952435 4.166914412927812 0 0 0
1570 1 0.03946572876378891 22.3546 12.9064 3.3191 0 0 0
1575 1 0.04025063887347662 22.439951116940886 12.81654953884097 5.639135083498123 0 0 0
1616 2 0.02997551142206489 18.2903 12.9064 3.3191 0 0 0
1625 1 0.04580244429963953 20.456310919391694 14.08892141110702 4.93380895606916 0 0 0
1532 1 0.04285757088314938 4.146723996880161 14.078928174038312 4.88080047384893 0 0 0
1579 2 0.03283860693637765 0.08912270002646054 14.153640042811588 4.893479755237477 1 0 0
491 1 0.04893329829599227 6.0967 19.9463 0.8298 0 0 0
536 2 0.03297336239558531 2.0324 19.9463 0.8298 0 0 0
811 1 0.04826379502437285 4.0646 16.4265 0.8298 0 0 0
826 2 0.02872219369210223 6.0967 19.9463 3.3191 0 0 0
856 2 0.03002417937304877 0 16.4265 0.8298 0 0 0
861 1 0.07289763666032664 2.0323 17.5997 0 0 0 0
866 2 0.02161428443472654 2.0323 17.5997 2.4893 0 0 0
871 2 0.02138342797607428 4.0644 18.7731 1.6595 0 0 0
876 2 0.02912780288023702 4.051289714159591 18.781524636910326 4.1789054669753645 0 0 0
927 2 0.02618945873420186 2.0324 19.9463 3.3191 0 0 0
932 2 0.02599843840567335 2.0276490443246318 19.98580950775796 5.619204611259138 0 0 0
1136 2 0.05324722882801017 4.0644 14.0799 0 0 0 0
1141 2 0.0217829315819255 4.0644 14.0799 2.4893 0 0 0
1146 2 0.02174648799544184 6.0967 15.2531 1.6595 0 0 0
1192 2 0.02782106827917105 2.0322 15.2531 1.6595 0 0 0
1197 2 0.02538752825004516 1.9917159804697009 15.267074178640716 4.041340621819265 0 0 0
1202 1 0.04333438427919641 4.0646 16.4265 3.3191 0 0 0
1207 1 0.03955417814418124 3.924963844025775 16.35590873200311 5.783312584068346 0 0 0
1248 2 0.03249882458502953 0 16.4265 3.3191 0 0 0
1257 1 0.04883373897037758 1.9941587425630334 17.487413420903646 4.919455034819986 0 0 0
1156 2 0.02549138862759455 6.064377609833381 17.63815905757136 4.7396195157371475 0 0 0
1211 2 0.02372619559734856 3.8840611185612888 18.841594119461238 6.536048220526914 0 0 0
831 2 0.03080088156466216 6.0696301415737866 19.91317835557197 5.5475789488046985 0 0 0
1151 1 0.04801070052283817 6.053895181890112 15.27169418660168 4.175483196732158 0 0 0
390 1 0.04867165856859984 10.1613 19.9463 0.8298 0 0 0
716 2 0.05321994713589247 10.1612 17.5997 0 0 0 0
721 1 0.04013320665041958 10.1612 17.5997 2.4893 0 0 0
726 1 0.03965497810266655 12.1933 18.7731 1.6595 0 0 0
766 2 0.03533407540506117 8.1289 16.4265 0.8298 0 0 0
771 2 0.02203861006135554 8.129 18.7731 1.6595 0 0 0
776 2 0.03343348555278798 8.234671817739995 18.838696449931376 4.0698944213907975 0 0 0
781 2 0.02413094889612 10.1613 19.9463 3.3191 0 0 0
786 2 0.03054261915530376 10.166033469007589 19.93993477597884 5.6240319895504065 0 0 0
816 1 0.07039052559171802 6.0968 17.5997 0 0 0 0
821 2 0.02338356532591005 6.0968 17.5997 2.4893 0 0 0
991 2 0.05824604128821718 12.1933 14.0799 0 0 0 0
996 2 0.02313515720781137 12.1933 14.0799 2.4893 0 0 0
1046 2 0.02661306900013511 10.1613 15.2531 1.6595 0 0 0
1051 2 0.02666573217432731 10.135187447789303 15.215942923302851 4.011199736933097 0 0 0
1091 2 0.05552386927368626 8.129 14.0799 0 0 0 0
1096 2 0.02631271126690628 8.129 14.0799 2.4893 0 0 0
1101 2 0.03060042736368429 8.1289 16.4265 3.3191 0 0 0
1106 2 0.03027497405081592 8.127432180944243 16.677614238417355 5.733321774890643 0 0 0
1110 2 0.0258879560156246 10.123616905430712 17.237064545080237 4.741150326004826 0 0 0
1061 2 0.02549423418961432 12.078068167736095 16.65238572386033 5.7596677398889335 0 0 0
731 1 0.048032036969723 12.24667552020226 18.800021449514155 4.207095899744234 0 0 0
1385 2 0.02412484716305976 12.333361366377275 14.297625080397472 4.91568470547228 0 0 0
1340 2 0.02542552641833727 16.15191364190883 14.155378976593138 5.010931806597684 0 0 0
881 2 0.02921076361514147 16.275734181394384 21.01600878438839 4.881935929515623 0 -1 0
343 2 0.03218811560983498 14.2259 19.9463 0.8298 0 0 0
665 2 0.02978374727434161 12.1935 16.4265 0.8298 0 0 0
670 2 0.05441997467591837 14.2257 17.5997 0 0 0 0
675 2 0.02167071839322325 14.2257 17.5997 2.4893 0 0 0
680 2 0.03017454396302435 16.2579 18.7731 1.6595 0 0 0
685 2 0.03397230261725875 16.273727002287266 18.664806682785642 4.288387395543378 0 0 0
736 2 0.02910929385238843 14.2259 19.9463 3.3191 0 0 0
741 2 0.02708878295398924 14.088160759352387 19.863344371105814 5.716041431772117 0 0 0
948 1 0.04835286848872014 16.258 16.4265 0.8298 0 0 0
1001 1 0.04288794293018999 14.2256 15.2531 1.6595 0 0 0
1006 2 0.02466114313150917 14.444873847811317 15.064041742083342 4.1308994477512835 0 0 0
1011 2 0.0282791764020881 16.258 16.4265 3.3191 0 0 0
1016 2 0.02488253041492496 16.394413964715298 16.372387168982137 5.694003413337953 0 0 0
1056 1 0.04719701854700757 12.1935 16.4265 3.3191 0 0 0
1065 2 0.03201880918920814 14.400224846389163 17.409842094769356 4.997128573369753 0 0 0
1275 1 0.06830362883543598 16.2579 14.0799 0 0 0 0
1280 1 0.04033281245610097 16.2579 14.0799 2.4893 0 0 0
1290 2 0.03074662965993636 18.222042628904926 15.143322546740935 4.056527788501542 0 0 0
1020 2 0.02833771912890044 18.210615725538144 17.606996452173473 4.908681685920243 0 0 0
1253 2 0.0278569025086461 24.196685313963595 16.684842271873663 5.719912684019986 -1 0 0
922 2 0.02680844526910525 0.16710989058251177 18.654758328978698 3.95672073758013 1 0 0
695 1 0.04841166120378811 18.286883190182174 20.053640036505506 5.745716061946197 0 0 0
835 1 0.05001517069143059 20.410730662800756 0.241729332831327 4.845549658649845 0 0 0
581 2 0.03348745784686889 22.3547 19.9463 0.8298 0 0 0
627 2 0.0365383507010619 18.2902 19.9463 0.8298 0 0 0
690 2 0.02903951516927478 18.2902 19.9463 3.3191 0 0 0
902 1 0.04755685441205368 20.3223 16.4265 0.8298 0 0 0
907 1 0.07132576654186784 22.3546 17.5997 0 0 0 0
912 2 0.02091609897849473 22.3546 17.5997 2.4893 0 0 0
917 2 0.02706435973339098 24.3868 18.7731 1.6595 0 0 0
953 2 0.05341272258719187 18.2903 17.5997 0 0 0 0
958 2 0.02578977779592102 18.2903 17.5997 2.4893 0 0 0
963 2 0.02642808359254943 20.3225 18.7731 1.6595 0 0 0
968 2 0.02942757717242715 20.35569833749094 18.890898103668604 4.107171769248986 0 0 0
973 2 0.02930240686626341 22.3547 19.9463 3.3191 0 0 0
978 2 0.0289051571615238 22.499953375448833 19.86888432008019 5.831974746412531 0 0 0
1182 2 0.05479340786741899 24.3868 14.0799 0 0 0 0
1187 2 0.02457713665848964 24.3868 14.0799 2.4893 0 0 0
1228 2 0.05336347490145639 20.3225 14.0799 0 0 0 0
1233 2 0.01860917399815121 20.3225 14.0799 2.4893 0 0 0
1238 1 0.04181877341178465 22.3547 15.2531 1.6595 0 0 0
1243 2 0.02454396401631186 22.42764560959069 15.330939588104929 4.183776962461766 0 0 0
1285 2 0.02273555116272179 18.2902 15.2531 1.6595 0 0 0
1295 1 0.04935153841956468 20.3223 16.4265 3.3191 0 0 0
1300 2 0.02744632373677289 20.338842863908372 16.32340980754726 5.85427940244604 0 0 0
1304 2 0.03064649218616273 22.25112835644124 17.582444633005437 4.7386775977799545 0 0 0
1634 2 0.02608738020681028 22.226052182480775 15.219805191578843 6.675885119003921 0 0 0
475 2 0.0280949192026657 2.0594249694138824 3.325624279025906 7.2460079972667435 0 0 0
479 2 0.02845388973719798 4.061249238900029 4.51619836981395 6.726244255290591 0 0 0
483 2 0.02741400233132891 4.118969822662556 4.459041405952349 9.00416595348055 0 0 0
532 1 0.05107827284020762 1.9538761386081613 5.679323010559353 8.020579033638139 0 0 0
537 2 0.02941758444248207 2.022786660840652 5.83799361561566 10.617563221853914 0 0 0
799 2 0.02975035211709111 2.024472472583575 0.9631919014348702 6.598094816309241 0 0 0
803 2 0.02570649955460248 1.8347837225124 1.22630044714231 8.97923954057401 0 0 0
807 2 0.0295658477187926 4.128129979825092 2.2275455374197985 8.18277734786206 0 0 0
812 2 0.03118602170326278 3.9462299705867614 2.259510439213533 10.612921263656023 0 0 0
862 2 0.02920377074851925 2.0821050593628097 3.3810830066972697 9.734064588666767 0 0 0
867 2 0.02834820911785346 2.1056065316830033 3.263476047361301 12.130646586393011 0 0 0
872 2 0.02890509999904353 4.01082030621001 4.721905567456112 11.312119976426327 0 0 0
1193 2 0.02529826765849492 2.011667244718169 1.0519743127641736 11.35668498231744 0 0 0
822 2 0.02871077152012597 6.11657318263222 3.26642211566794 12.039827476876154 0 0 0
1147 2 0.02627878709179764 6.102717386120528 0.7915034409829206 11.340921612690146 0 0 0
754 2 0.03264638663615874 6.065990437590159 1.0603539160110365 6.510424799443447 0 0 0
852 2 0.02569386105267749 24.36023215252313 2.4344131644070917 8.052849877605642 -1 0 0
524 1 0.0478408708259128 0.03410881875514704 4.736040485398654 6.590005167110746 0 0 0
857 1 0.04614663402330441 24.36141262086351 2.3540730567835677 10.541458986011458 -1 0 0
750 2 0.0242383151616022 4.08195244840265 0.07066639317044121 7.319276618762733 0 0 0
487 2 0.02850941611920473 5.9482375503764855 5.809806663497885 8.38386392167624 0 0 0
492 2 0.02938190152885996 6.302478282471217 5.8785913252649 10.659868646956948 0 0 0
758 2 0.02838637933205725 6.121863195626782 1.0776842782460396 8.948524378147349 0 0 0
817 2 0.03005575534190311 6.227234151745155 3.4408213796566702 9.695226456040082 0 0 0
429 2 0.03011559358493124 6.201837872686683 3.4224130800581234 7.423653077050962 0 0 0
382 2 0.02897280896241849 9.98433736984424 3.5144707231669803 7.444147727474189 0 0 0
386 2 0.02902938334311034 10.422384002043483 5.880394669232188 8.221121620191557 0 0 0
391 2 0.02967106823984533 10.006900153115316 5.980214952849335 10.587761486086336 0 0 0
433 2 0.03074708498142954 8.069393972291811 4.515528313689141 6.631262931685936 0 0 0
437 2 0.03152991475563858 8.14962430213026 4.584366733729351 9.049048379055241 0 0 0
708 1 0.04815098140618052 10.174741350120785 1.2990526871187469 6.561221622792865 0 0 0
712 1 0.04208685411938906 9.993892131523605 1.1484358582962046 8.959177209198167 0 0 0
717 2 0.02717844420109349 10.307422988488804 3.389057031820437 9.754192539979027 0 0 0
762 2 0.02205697862524807 8.065594591062878 2.2340896397352843 8.02130366167919 0 0 0
767 1 0.04744012106516969 8.161273074102665 2.3008734463279743 10.482432253303696 0 0 0
722 2 0.02867974225406335 10.156904829361313 3.5069433953438014 12.192111179986625 0 0 0
772 2 0.03190028725586538 8.016074051134872 4.800791037830845 11.508670773426196 0 0 0
1047 2 0.02297990453253897 10.129358020230393 1.3970204299763407 11.460172164398777 0 0 0
727 1 0.0487572733641457 12.152824628175978 4.838493637809143 11.366133008248731 0 0 0
447 2 0.03267055716397171 8.161905658767651 7.2181258736801315 12.301636555257156 0 0 0
992 2 0.02844472142517847 12.129422172589278 0.0721421789977493 9.88438777564203 0 0 0
987 2 0.02442729550913295 12.169933794122503 0.2189411761448844 7.386722548083427 0 0 0
331 2 0.02914580657022461 12.260506893078198 4.6953947074519 6.715933430720404 0 0 0
335 2 0.02574878706601227 12.055015885764508 4.774320987900129 8.96941185399265 0 0 0
661 2 0.02880593098411929 12.24421844210493 2.493713094188942 8.01269777994298 0 0 0
339 1 0.05023142389689872 14.165194565428807 5.797418591060413 8.066023738815051 0 0 0
344 2 0.02773495086248275 14.239689243631073 5.958946213894051 10.530563432468714 0 0 0
611 2 0.02518222729892094 14.143039056882209 3.579391682885742 7.134207795908607 0 0 0
615 2 0.03075525359515204 16.198562181230244 4.6094237006771035 6.367250931718884 0 0 0
619 2 0.03092779485287457 16.31914844683917 4.604760631689707 8.879562656372757 0 0 0
666 2 0.02958354781442326 12.183892383585357 2.449777486227042 10.65132854209875 0 0 0
671 2 0.02937272338951587 14.096078547145824 3.5348814937106035 9.6935566662382 0 0 0
936 1 0.04612826974492217 14.301317773535096 1.1325791997409864 6.524809171393569 0 0 0
940 1 0.04410430838096524 14.259694817759087 1.1772922830774941 8.953032123233626 0 0 0
944 2 0.02320592092374285 16.182781219870137 2.4093683262927383 8.132217473768666 0 0 0
949 2 0.0244606127075617 15.913503711648541 2.2854470898893746 10.595635393360688 0 0 0
954 2 0.02825590573184424 18.179996208430865 3.3227163104470274 9.747829195750422 0 0 0
676 2 0.02580332201923807 14.08878514025897 3.4998392051707516 12.207365755935962 0 0 0
681 2 0.03057985744273281 16.056669407474736 4.609403487901213 11.290827973213396 0 0 0
1002 2 0.02900306315901276 14.289654072262636 1.1662320225693519 11.375595491265498 0 0 0
894 1 0.04601978042571728 18.165710462087073 1.0801839149909247 8.962216166447984 0 0 0
290 2 0.02788423038706281 16.12016593624506 7.012988012832169 7.374126305715451 0 0 0
565 2 0.03166940661661987 18.11269997228218 3.531802763520567 7.35490280306726 0 0 0
354 2 0.02872698640998239 16.292756707533428 6.994325167832033 12.184079923489042 0 0 0
886 1 0.03881904077382854 16.337106110698816 0.024272177186364985 7.420491651595535 0 0 0
1276 1 0.03836669871296762 16.261325496063446 0.047762691032644966 9.868316624287507 0 0 0
1281 2 0.02364002059978589 16.30667516801059 0.03286047501053346 12.363147999023576 0 0 0
737 2 0.02429273366374442 14.339864011243222 5.921052689595225 12.982360603430285 0 0 0
918 2 0.02974316076012086 0.09856715862085874 4.475122273546271 11.526249221128435 0 0 0
628 2 0.03467173627385185 18.1756453374715 5.722975608130321 10.635785787225839 0 0 0
1286 1 0.04762433440102611 18.156854365369014 1.1631214800229208 11.527134290682001 0 0 0
959 2 0.02514375526593594 17.99070585130032 3.5623744539201923 12.197976156905861 0 0 0
528 2 0.02344400053617644 24.35535183151466 4.641143113003616 9.165521110080059 -1 0 0
623 2 0.03063835638463459 18.322044461835567 5.8940754161941395 8.23130879354618 0 0 0
520 2 0.02630744938438488 22.18734902456319 3.6457996668792028 7.35509422610834 0 0 0
569 2 0.02944838795467274 20.30508801405387 4.881317509627691 6.5482665826428 0 0 0
573 2 0.02955964906685391 20.242586521704432 4.754723043388006 8.933778713670492 0 0 0
577 2 0.02594317752436589 22.381921499135466 5.876599823348601 8.219391064564178 0 0 0
582 1 0.04943207012281262 22.275601140118056 5.978290664054208 10.773925682919904 0 0 0
840 2 0.02867400050976129 20.345742614347866 0.09344823903092815 7.42879527385616 0 0 0
844 2 0.03008176162111667 22.482941337167375 1.3412740084029442 6.655068792907887 0 0 0
848 1 0.0449705726631147 22.299513296316345 1.3317925806724507 9.155534073426917 0 0 0
890 2 0.0228398982220868 18.370329797852175 1.200774672162153 6.64913931751204 0 0 0
898 2 0.02691386018188417 20.264805701878096 2.5072849291601593 7.991289594223115 0 0 0
903 1 0.04667799351615169 20.339520014310306 2.348616155138323 10.58515877528809 0 0 0
908 1 0.04204640192011927 22.368060559235666 3.6353500890426247 9.68227168744324 0 0 0
913 2 0.03093297511416287 22.208806163230424 3.406642857958187 12.333368605594933 0 0 0
964 2 0.02980170629906413 20.312215332500532 4.813998780012773 11.461799951637186 0 0 0
1239 2 0.02156993611582261 22.20043277111832 1.1466878266637284 11.455226506478093 0 0 0
1188 1 0.04876619626151415 24.283629608253122 0.14500926535105008 12.2182053449208 -1 0 0
1229 2 0.02410394526498918 20.234502546285803 0.04789038450052047 9.693412814981023 0 0 0
587 2 0.03065610156406198 24.276449689766615 6.988028256984222 9.622893077589705 -1 0 0
542 1 0.04931674707648793 4.053972454551984 6.836498712052223 9.851035051727642 0 0 0
547 2 0.02564632568408229 3.9811683531214364 7.149365912938571 12.167440842713297 0 0 0
154 2 0.02818684145750346 4.0249674763195475 7.12118257619 7.457740380228586 0 0 0
204 2 0.02997648618019506 1.7331294500244054 8.239184098439612 6.501557320122731 0 0 0
208 2 0.02748748550838459 2.1245806403324967 8.375058085032688 8.933961116464703 0 0 0
212 2 0.03391368161964477 4.168798759132702 9.373784652348231 7.887216355900726 0 0 0
217 2 0.02966919458206185 4.027853845805913 9.411596280215047 10.5610992666161 0 0 0
267 2 0.03016445466995352 2.0849433971938036 10.61975586851375 9.96360418805791 0 0 0
1859 2 0.02811644547092255 2.070087126175238 10.441032615075152 7.37285207438659 0 0 0
272 2 0.02989717689305875 2.0347219850337988 10.483241645401854 12.34383292002865 0 0 0
597 2 0.02973655131345945 2.139579941746384 8.169443515317209 11.317147381104165 0 0 0
1863 1 0.04870790410900011 4.072746792711138 11.850268741840665 6.662165451515059 0 0 0
1867 2 0.02709892599038177 4.150732087543121 11.937148109990414 9.059582056324833 0 0 0
1917 2 0.02688324567350729 1.9742441433289755 13.060741751742643 8.24836894789488 0 0 0
1922 2 0.02773319041326654 2.0508951632801313 12.924485606652183 10.714745287133498 0 0 0
222 2 0.03154315779359308 3.8723930091212173 11.543735270161802 11.51796699694891 0 0 0
1877 2 0.02354556441609754 3.9732227136484415 13.912924940284192 12.26385786443745 0 0 0
162 2 0.02673219020120399 6.2855159613404945 8.030425752308377 8.971608047203988 0 0 0
1821 2 0.03054448737377084 6.083710417055335 12.742281470019725 10.547615430141526 0 0 0
158 2 0.03032240600814043 6.0742896927754755 8.26745247721479 6.5462025197899045 0 0 0
167 2 0.03287002963151604 5.991900276000531 10.456067477683277 9.605598386914663 0 0 0
1913 1 0.04458280211856382 0.00677353084408594 11.962909489029208 9.073692805112199 0 0 0
1584 2 0.02800716568548678 24.219874577900868 14.098363073511516 7.2494199975428035 0 0 0
1812 2 0.02259765180473405 6.2956064516932715 10.657862224831005 7.379730146826323 0 0 0
497 2 0.03121447287670989 5.945092836651659 8.140444579456704 11.386847712379812 0 0 0
1909 2 0.02635540944100619 0.10810290660546197 11.69945140242338 6.603549458902953 0 0 0
107 2 0.02968766505205173 8.273614122326157 7.028330071808771 7.365943398863178 0 0 0
442 2 0.02637896570780487 8.205110329295085 6.914275461350315 9.732680286010543 0 0 0
6 2 0.02837762051874153 12.042535957053369 6.971274421565259 7.259457915548946 0 0 0
1816 2 0.02619328291535045 6.0817841813439975 12.977164225704996 8.107742045716828 0 0 0