LAMMPS 2005 data file for kevlar_unt_pcff
56 atoms
6 atom types
0.000000000  7.870000000 xlo xhi
0.000000000  5.180000000 ylo yhi
0.000000000 12.900000000 zlo zhi

Masses

1 15.999400 # O
2 14.010000 # N
3 12.011150 # C
4 12.011150 # C
5 1.008000  # H
6 1.007970  # H

Atoms

1 1 -0.531000 -0.165302868 -1.901093178 0.193460926
2 1 -0.531000 0.165270001 1.901060104 6.901500225
3 2 -0.726000 0.023610000 0.290080011 0.748199999
4 3 0.660000 -0.062973137 -0.714852982 12.770974159
5 2 -0.726000 -0.023610000 -0.290080242 6.346800327
6 4 -0.018000 -0.031480003 -0.347060375 11.339098930
7 4 -0.126800 0.668950021 0.777000010 10.926300049
8 4 -0.126800 0.700430036 1.124059916 9.584699631
9 4 -0.018000 0.031480003 0.347059995 8.655899048
10 4 -0.126800 -0.668976421 -0.777026348 9.068600655
11 4 -0.126800 -0.700455780 -1.124085598 10.410202026
12 4 0.237000 0.015740002 0.145040005 2.167200089
13 4 -0.126800 0.661080003 -0.927220039 2.760587692
14 4 -0.126800 0.645340025 -1.072260075 4.140900135
15 4 0.237000 -0.015740002 -0.145040207 4.927800179
16 4 -0.126800 -0.661103363 0.927202523 4.334376812
17 4 -0.126800 -0.645362968 1.072242856 2.954088688
18 3 0.660000 0.062960006 0.714839995 7.223999977
19 5 0.378000 0.102310002 1.201759934 0.348300010
20 5 0.378000 -0.102331753 -1.201781445 6.746678352
21 6 0.126800 1.164759994 1.346799970 11.609999657
22 6 0.126800 1.211979985 1.947679877 9.288000107
23 6 0.126800 -1.164778347 -1.346818142 8.384932518
24 6 0.126800 -1.211997623 -1.947697811 10.706933975
25 6 0.126800 1.141149998 -1.610980206 2.180091381
26 6 0.126800 1.125410080 -1.859620266 4.566599846
27 6 0.126800 -1.141166325 1.610967755 4.914884090
28 6 0.126800 -1.125425930 1.859608173 2.528392076
29 1 -0.531000 3.769697132 0.688906822 12.706539074
30 1 -0.531000 4.100270001 4.491060104 5.998499775
31 2 -0.726000 3.958610000 2.880080011 12.151800001
32 3 0.660000 3.872026863 1.875147018 0.129025841
33 2 -0.726000 3.911390000 2.299919758 6.553199673
34 4 -0.018000 3.903519997 2.242939625 1.560901070
35 4 -0.126800 4.603950021 3.367000010 1.973699951
36 4 -0.126800 4.635430036 3.714059916 3.315300369
37 4 -0.018000 3.966480003 2.937059995 4.244100952
38 4 -0.126800 3.266023579 1.812973652 3.831399345
39 4 -0.126800 3.234544220 1.465914402 2.489797974
40 4 0.237000 3.950740002 2.735040005 10.732799911
41 4 -0.126800 4.596080003 1.662779961 10.139412308
42 4 -0.126800 4.580340025 1.517739925 8.759099865
43 4 0.237000 3.919259998 2.444959793 7.972199821
44 4 -0.126800 3.273896637 3.517202523 8.565623188
45 4 -0.126800 3.289637032 3.662242856 9.945911312
46 3 0.660000 3.997960006 3.304839995 5.676000023
47 5 0.378000 4.037310002 3.791759934 12.551699990
48 5 0.378000 3.832668247 1.388218555 6.153321648
49 6 0.126800 5.099759994 3.936799970 1.290000343
50 6 0.126800 5.146979985 4.537679877 3.611999893
51 6 0.126800 2.770221653 1.243181858 4.515067482
52 6 0.126800 2.723002377 0.642302189 2.193066025
53 6 0.126800 5.076149998 0.979019794 10.719908619
54 6 0.126800 5.060410080 0.730379734 8.333400154
55 6 0.126800 2.793833675 4.200967755 7.985115910
56 6 0.126800 2.809574070 4.449608173 10.371607924
