LAMMPS 2005 data file for kevlar_unt_pcff
56 atoms
60 bonds
96 angles
144 dihedrals
32 impropers
6 atom types
7 bond types
10 angle types
15 dihedral types
5 improper types
0.000000000 7.870000000 xlo xhi
0.000000000 5.180000000 ylo yhi
0.000000000 12.900000000 zlo zhi

Masses

1 15.999400
2 14.010000
3 12.011150
4 12.011150
5 1.008000
6 1.007970

Pair Coeffs

1 0.2670000000 3.3000000000
2 0.1060000000 3.6000000000
3 0.1200000000 3.8100000000
4 0.0640000000 4.0100000000
5 0.0130000000 1.6500000000
6 0.0200000000 2.9950000000

Bond Coeffs

1 1.2020 851.1403 -1918.4882 2160.7659
2 1.3660 390.6783 -768.3798 923.2418
3 1.4390 344.0452 -652.1208 1022.2242
4 0.9959 495.8294 -1092.7239 1441.1290
5 1.4890 339.3574 -655.7236 670.2362
6 1.4170 470.8361 -627.6179 1327.6345
7 1.0982 372.8251 -803.4526 894.3173

Angle Coeffs

1 116.6260 42.4711 -10.4269 0.0000
2 122.9480 40.4820 -16.2028 0.0000
3 116.3230 18.3123 -7.8325 5.3290
4 125.5320 101.8765 -41.8094 0.0000
5 108.4400 84.8377 -19.9640 2.7405
6 125.5320 72.3167 -16.0650 2.0818
7 118.9000 61.0226 -34.9931 0.0000
8 116.0640 71.2598 -15.8273 2.0506
9 117.9400 35.1558 -12.4682 0.0000
10 120.7640 73.2738 -27.4033 13.3920

Dihedral Coeffs

1 0.0000 0 2 0 0 0
2 -1.1077 0 2 0 0 0
3 0.0000 0 2 0 0 0
4 -1.1077 0 2 0 0 0
5 0.0000 0 1 0 0 0
6 0.0000 0 1 0 0 0
7 0.0000 0 1 0 0 0
8 0.0000 0 1 0 0 0
9 8.3667 0 1 0 0 0
10 0.0000 0 4 0 0 0
11 0.0000 0 5 0 0 0
12 0.0000 0 2 0 0 0
13 0.0000 0 2 0 0 0
14 0.0000 0 3 0 0 0
15 0.0000 0 3 0 0 0

Improper Coeffs

1 4.4181 0.0000
2 49.3740 0.0000
3 17.0526 0.0000
4 4.8912 0.0000
5 17.0526 0.0000

BondBond Coeffs

1 41.4233 1.3660 1.4390
2 8.6253 1.3660 0.9959
3 8.2930 1.4390 0.9959
4 116.9445 1.2020 1.3660
5 69.9445 1.3660 1.4890
6 116.9445 1.2020 1.4890
7 68.2856 1.4170 1.4170
8 37.8749 1.4890 1.4170
9 1.0795 1.4170 1.0982
10 37.8749 1.4390 1.4170

BondAngle Coeffs

1 0.0000 0.0000 1.3660 1.4390
2 0.0000 0.0000 1.3660 0.9959
3 10.4568 12.8217 1.4390 0.9959
4 46.1093 32.8758 1.2020 1.3660
5 76.1093 72.8758 1.3660 1.4890
6 76.1093 72.8758 1.2020 1.4890
7 28.8708 28.8708 1.4170 1.4170
8 23.6977 45.8865 1.4890 1.4170
9 20.0033 24.2183 1.4170 1.0982
10 53.6977 35.8865 1.4390 1.4170

AngleAngle Coeffs

1 0.0000 0.0000 0.0000 116.6260 116.3230 122.9480
2 0.0000 0.0000 0.0000 125.5320 108.4400 125.5320
3 0.0000 5.9863 0.0000 116.0640 118.9000 116.0640
4 0.0000 0.0000 0.0000 118.9000 117.9400 117.9400
5 0.0000 0.0000 0.0000 120.7640 118.9000 120.7640

AngleAngleTorsion Coeffs

1 0.0000 116.6260 125.5320
2 0.0000 116.6260 108.4400
3 0.0000 122.9480 125.5320
4 0.0000 122.9480 108.4400
5 0.0000 116.6260 120.7640
6 0.0000 116.3230 120.7640
7 0.0000 108.4400 116.0640
8 0.0000 125.5320 116.0640
9 0.0000 118.9000 118.9000
10 -4.8141 118.9000 117.9400
11 0.0000 116.0640 118.9000
12 0.0000 116.0640 117.9400
13 0.3598 117.9400 117.9400
14 0.0000 120.7640 118.9000
15 0.0000 120.7640 117.9400

EndBondTorsion Coeffs

1 0.0000 0.0000 0.0000 0.0000 0.0000 0.0000 1.4390 1.2020
2 0.0000 0.0000 0.0000 0.0000 0.0000 0.0000 1.4390 1.4890
3 0.0000 0.0000 0.0000 0.0000 0.0000 0.0000 0.9959 1.2020
4 0.0000 0.0000 0.0000 0.0000 0.0000 0.0000 0.9959 1.4890
5 0.0000 0.0000 0.0000 0.0000 0.0000 0.0000 1.3660 1.4170
6 0.0000 0.0000 0.0000 0.0000 0.0000 0.0000 0.9959 1.4170
7 0.0000 0.0000 0.0000 0.0000 0.0000 0.0000 1.3660 1.4170
8 0.0000 0.0000 0.0000 0.0000 0.0000 0.0000 1.2020 1.4170
9 -0.1185 6.3204 0.0000 -0.1185 6.3204 0.0000 1.4170 1.4170
10 0.0000 -6.8958 0.0000 0.0000 -0.4669 0.0000 1.4170 1.0982
11 0.0000 0.0000 0.0000 0.0000 0.0000 0.0000 1.4890 1.4170
12 0.0000 0.0000 0.0000 0.0000 0.0000 0.0000 1.4890 1.0982
13 0.0000 -0.6890 0.0000 0.0000 -0.6890 0.0000 1.0982 1.0982
14 0.0000 0.0000 0.0000 0.0000 0.0000 0.0000 1.4390 1.4170
15 0.0000 0.0000 0.0000 0.0000 0.0000 0.0000 1.4390 1.0982

MiddleBondTorsion Coeffs

1 0.0000 0.0000 0.0000 1.3660
2 0.0000 0.0000 0.0000 1.3660
3 0.0000 0.0000 0.0000 1.3660
4 0.0000 0.0000 0.0000 1.3660
5 0.0000 0.0000 0.0000 1.4390
6 0.0000 2.4730 0.0000 1.4390
7 0.0000 2.4002 0.0000 1.4890
8 0.0000 2.4002 0.0000 1.4890
9 27.5989 -2.3120 0.0000 1.4170
10 0.0000 -1.1521 0.0000 1.4170
11 0.0000 3.8762 0.0000 1.4170
12 0.0000 0.0000 0.0000 1.4170
13 0.0000 4.8228 0.0000 1.4170
14 0.0000 5.2012 0.0000 1.4170
15 0.0000 5.2012 0.0000 1.4170

BondBond13 Coeffs

1 0.0000 1.4390 1.2020
2 0.0000 1.4390 1.4890
3 0.0000 0.9959 1.2020
4 0.0000 0.9959 1.4890
5 0.0000 1.3660 1.4170
6 0.0000 0.9959 1.4170
7 0.0000 1.3660 1.4170
8 0.0000 1.2020 1.4170
9 53.0000 1.4170 1.4170
10 -6.2741 1.4170 1.0982
11 0.0000 1.4890 1.4170
12 0.0000 1.4890 1.0982
13 -1.7077 1.0982 1.0982
14 0.0000 1.4390 1.4170
15 0.0000 1.4390 1.0982

AngleTorsion Coeffs

1 0.0000 0.0000 0.0000 0.0000 0.0000 0.0000 116.6260 125.5320
2 0.0000 0.0000 0.0000 0.0000 0.0000 0.0000 116.6260 108.4400
3 0.0000 0.0000 0.0000 0.0000 0.0000 0.0000 122.9480 125.5320
4 0.0000 0.0000 0.0000 0.0000 0.0000 0.0000 122.9480 108.4400
5 0.0000 0.0000 0.0000 0.0000 0.0000 0.0000 116.6260 120.7640
6 0.0000 0.0000 0.0000 0.0000 0.0000 0.0000 116.3230 120.7640
7 0.0000 0.0000 0.0000 0.0000 0.0000 0.0000 108.4400 116.0640
8 0.0000 0.0000 0.0000 0.0000 0.0000 0.0000 125.5320 116.0640
9 1.9767 1.0239 0.0000 1.9767 1.0239 0.0000 118.9000 118.9000
10 0.0000 2.5014 0.0000 0.0000 2.7147 0.0000 118.9000 117.9400
11 0.0000 0.0000 0.0000 0.0000 0.0000 0.0000 116.0640 118.9000
12 0.0000 0.0000 0.0000 0.0000 0.0000 0.0000 116.0640 117.9400
13 0.0000 2.4501 0.0000 0.0000 2.4501 0.0000 117.9400 117.9400
14 0.0000 0.0000 0.0000 0.0000 0.0000 0.0000 120.7640 118.9000
15 0.0000 0.0000 0.0000 0.0000 0.0000 0.0000 120.7640 117.9400

Atoms

1 1 1 -0.531000 -0.165302868 -1.901093178 0.193460926
2 1 1 -0.531000 0.165270001 1.901060104 6.901500225
3 1 2 -0.726000 0.023610000 0.290080011 0.748199999
4 1 3 0.660000 -0.062973137 -0.714852982 12.770974159
5 1 2 -0.726000 -0.023610000 -0.290080242 6.346800327
6 1 4 -0.018000 -0.031480003 -0.347060375 11.339098930
7 1 4 -0.126800 0.668950021 0.777000010 10.926300049
8 1 4 -0.126800 0.700430036 1.124059916 9.584699631
9 1 4 -0.018000 0.031480003 0.347059995 8.655899048
10 1 4 -0.126800 -0.668976421 -0.777026348 9.068600655
11 1 4 -0.126800 -0.700455780 -1.124085598 10.410202026
12 1 4 0.237000 0.015740002 0.145040005 2.167200089
13 1 4 -0.126800 0.661080003 -0.927220039 2.760587692
14 1 4 -0.126800 0.645340025 -1.072260075 4.140900135
15 1 4 0.237000 -0.015740002 -0.145040207 4.927800179
16 1 4 -0.126800 -0.661103363 0.927202523 4.334376812
17 1 4 -0.126800 -0.645362968 1.072242856 2.954088688
18 1 3 0.660000 0.062960006 0.714839995 7.223999977
19 1 5 0.378000 0.102310002 1.201759934 0.348300010
20 1 5 0.378000 -0.102331753 -1.201781445 6.746678352
21 1 6 0.126800 1.164759994 1.346799970 11.609999657
22 1 6 0.126800 1.211979985 1.947679877 9.288000107
23 1 6 0.126800 -1.164778347 -1.346818142 8.384932518
24 1 6 0.126800 -1.211997623 -1.947697811 10.706933975
25 1 6 0.126800 1.141149998 -1.610980206 2.180091381
26 1 6 0.126800 1.125410080 -1.859620266 4.566599846
27 1 6 0.126800 -1.141166325 1.610967755 4.914884090
28 1 6 0.126800 -1.125425930 1.859608173 2.528392076
29 1 1 -0.531000 3.769697132 0.688906822 12.706539074
30 1 1 -0.531000 4.100270001 4.491060104 5.998499775
31 1 2 -0.726000 3.958610000 2.880080011 12.151800001
32 1 3 0.660000 3.872026863 1.875147018 0.129025841
33 1 2 -0.726000 3.911390000 2.299919758 6.553199673
34 1 4 -0.018000 3.903519997 2.242939625 1.560901070
35 1 4 -0.126800 4.603950021 3.367000010 1.973699951
36 1 4 -0.126800 4.635430036 3.714059916 3.315300369
37 1 4 -0.018000 3.966480003 2.937059995 4.244100952
38 1 4 -0.126800 3.266023579 1.812973652 3.831399345
39 1 4 -0.126800 3.234544220 1.465914402 2.489797974
40 1 4 0.237000 3.950740002 2.735040005 10.732799911
41 1 4 -0.126800 4.596080003 1.662779961 10.139412308
42 1 4 -0.126800 4.580340025 1.517739925 8.759099865
43 1 4 0.237000 3.919259998 2.444959793 7.972199821
44 1 4 -0.126800 3.273896637 3.517202523 8.565623188
45 1 4 -0.126800 3.289637032 3.662242856 9.945911312
46 1 3 0.660000 3.997960006 3.304839995 5.676000023
47 1 5 0.378000 4.037310002 3.791759934 12.551699990
48 1 5 0.378000 3.832668247 1.388218555 6.153321648
49 1 6 0.126800 5.099759994 3.936799970 1.290000343
50 1 6 0.126800 5.146979985 4.537679877 3.611999893
51 1 6 0.126800 2.770221653 1.243181858 4.515067482
52 1 6 0.126800 2.723002377 0.642302189 2.193066025
53 1 6 0.126800 5.076149998 0.979019794 10.719908619
54 1 6 0.126800 5.060410080 0.730379734 8.333400154
55 1 6 0.126800 2.793833675 4.200967755 7.985115910
56 1 6 0.126800 2.809574070 4.449608173 10.371607924

Bonds

1 1 1 4
2 1 2 18
3 2 3 4
4 3 3 12
5 4 3 19
6 5 4 6
7 3 5 15
8 2 5 18
9 4 5 20
10 6 6 7
11 6 6 11
12 6 7 8
13 7 7 21
14 6 8 9
15 7 8 22
16 6 9 10
17 5 18 9
18 6 10 11
19 7 10 23
20 7 11 24
21 6 12 13
22 6 12 17
23 6 13 14
24 7 13 25
25 6 14 15
26 7 14 26
27 6 15 16
28 6 16 17
29 7 16 27
30 7 17 28
31 1 29 32
32 1 30 46
33 2 31 32
34 3 31 40
35 4 31 47
36 5 32 34
37 3 33 43
38 2 33 46
39 4 33 48
40 6 34 35
41 6 34 39
42 6 35 36
43 7 35 49
44 6 36 37
45 7 36 50
46 6 37 38
47 5 46 37
48 6 38 39
49 7 38 51
50 7 39 52
51 6 40 41
52 6 40 45
53 6 41 42
54 7 41 53
55 6 42 43
56 7 42 54
57 6 43 44
58 6 44 45
59 7 44 55
60 7 45 56

Angles

1 1 4 3 12
2 2 4 3 19
3 3 12 3 19
4 4 1 4 3
5 5 3 4 6
6 6 1 4 6
7 1 18 5 15
8 3 15 5 20
9 2 18 5 20
10 7 7 6 11
11 8 4 6 7
12 8 4 6 11
13 7 6 7 8
14 9 6 7 21
15 9 8 7 21
16 7 7 8 9
17 9 7 8 22
18 9 9 8 22
19 7 8 9 10
20 8 18 9 8
21 8 18 9 10
22 7 9 10 11
23 9 9 10 23
24 9 11 10 23
25 7 10 11 6
26 9 10 11 24
27 9 6 11 24
28 10 3 12 13
29 10 3 12 17
30 7 13 12 17
31 7 12 13 14
32 9 12 13 25
33 9 14 13 25
34 7 13 14 15
35 9 13 14 26
36 9 15 14 26
37 10 5 15 14
38 7 14 15 16
39 10 5 15 16
40 7 15 16 17
41 9 15 16 27
42 9 17 16 27
43 7 16 17 12
44 9 16 17 28
45 9 12 17 28
46 5 5 18 9
47 6 2 18 9
48 4 2 18 5
49 1 32 31 40
50 2 32 31 47
51 3 40 31 47
52 4 29 32 31
53 5 31 32 34
54 6 29 32 34
55 1 46 33 43
56 3 43 33 48
57 2 46 33 48
58 7 35 34 39
59 8 32 34 35
60 8 32 34 39
61 7 34 35 36
62 9 34 35 49
63 9 36 35 49
64 7 35 36 37
65 9 35 36 50
66 9 37 36 50
67 7 36 37 38
68 8 46 37 36
69 8 46 37 38
70 7 37 38 39
71 9 37 38 51
72 9 39 38 51
73 7 38 39 34
74 9 38 39 52
75 9 34 39 52
76 10 31 40 41
77 10 31 40 45
78 7 41 40 45
79 7 40 41 42
80 9 40 41 53
81 9 42 41 53
82 7 41 42 43
83 9 41 42 54
84 9 43 42 54
85 10 33 43 42
86 7 42 43 44
87 10 33 43 44
88 7 43 44 45
89 9 43 44 55
90 9 45 44 55
91 7 44 45 40
92 9 44 45 56
93 9 40 45 56
94 5 33 46 37
95 6 30 46 37
96 4 30 46 33

Dihedrals

1 1 12 3 4 1
2 2 12 3 4 6
3 3 19 3 4 1
4 4 19 3 4 6
5 5 4 3 12 13
6 5 4 3 12 17
7 6 19 3 12 13
8 6 19 3 12 17
9 7 3 4 6 7
10 7 3 4 6 11
11 8 1 4 6 7
12 8 1 4 6 11
13 5 18 5 15 14
14 5 18 5 15 16
15 6 20 5 15 14
16 6 20 5 15 16
17 2 15 5 18 9
18 1 15 5 18 2
19 4 20 5 18 9
20 3 20 5 18 2
21 9 11 6 7 8
22 10 11 6 7 21
23 11 4 6 7 8
24 12 4 6 7 21
25 9 7 6 11 10
26 10 7 6 11 24
27 11 4 6 11 10
28 12 4 6 11 24
29 9 6 7 8 9
30 10 6 7 8 22
31 10 9 8 7 21
32 13 21 7 8 22
33 9 7 8 9 10
34 11 18 9 8 7
35 10 10 9 8 22
36 12 18 9 8 22
37 9 8 9 10 11
38 10 8 9 10 23
39 11 18 9 10 11
40 12 18 9 10 23
41 7 5 18 9 8
42 8 2 18 9 8
43 7 5 18 9 10
44 8 2 18 9 10
45 9 9 10 11 6
46 10 9 10 11 24
47 10 6 11 10 23
48 13 23 10 11 24
49 14 3 12 13 14
50 15 3 12 13 25
51 9 17 12 13 14
52 10 17 12 13 25
53 14 3 12 17 16
54 15 3 12 17 28
55 9 13 12 17 16
56 10 13 12 17 28
57 9 12 13 14 15
58 10 12 13 14 26
59 10 15 14 13 25
60 13 25 13 14 26
61 14 5 15 14 13
62 9 13 14 15 16
63 15 5 15 14 26
64 10 16 15 14 26
65 9 14 15 16 17
66 10 14 15 16 27
67 14 5 15 16 17
68 15 5 15 16 27
69 9 15 16 17 12
70 10 15 16 17 28
71 10 12 17 16 27
72 13 27 16 17 28
73 1 40 31 32 29
74 2 40 31 32 34
75 3 47 31 32 29
76 4 47 31 32 34
77 5 32 31 40 41
78 5 32 31 40 45
79 6 47 31 40 41
80 6 47 31 40 45
81 7 31 32 34 35
82 7 31 32 34 39
83 8 29 32 34 35
84 8 29 32 34 39
85 5 46 33 43 42
86 5 46 33 43 44
87 6 48 33 43 42
88 6 48 33 43 44
89 2 43 33 46 37
90 1 43 33 46 30
91 4 48 33 46 37
92 3 48 33 46 30
93 9 39 34 35 36
94 10 39 34 35 49
95 11 32 34 35 36
96 12 32 34 35 49
97 9 35 34 39 38
98 10 35 34 39 52
99 11 32 34 39 38
100 12 32 34 39 52
101 9 34 35 36 37
102 10 34 35 36 50
103 10 37 36 35 49
104 13 49 35 36 50
105 9 35 36 37 38
106 11 46 37 36 35
107 10 38 37 36 50
108 12 46 37 36 50
109 9 36 37 38 39
110 10 36 37 38 51
111 11 46 37 38 39
112 12 46 37 38 51
113 7 33 46 37 36
114 8 30 46 37 36
115 7 33 46 37 38
116 8 30 46 37 38
117 9 37 38 39 34
118 10 37 38 39 52
119 10 34 39 38 51
120 13 51 38 39 52
121 14 31 40 41 42
122 15 31 40 41 53
123 9 45 40 41 42
124 10 45 40 41 53
125 14 31 40 45 44
126 15 31 40 45 56
127 9 41 40 45 44
128 10 41 40 45 56
129 9 40 41 42 43
130 10 40 41 42 54
131 10 43 42 41 53
132 13 53 41 42 54
133 14 33 43 42 41
134 9 41 42 43 44
135 15 33 43 42 54
136 10 44 43 42 54
137 9 42 43 44 45
138 10 42 43 44 55
139 14 33 43 44 45
140 15 33 43 44 55
141 9 43 44 45 40
142 10 43 44 45 56
143 10 40 45 44 55
144 13 55 44 45 56

Impropers

1 1 4 3 12 19
2 2 1 4 3 6
3 1 18 5 15 20
4 3 4 6 11 7
5 4 6 7 8 21
6 4 7 8 9 22
7 3 18 9 10 8
8 4 9 10 11 23
9 4 10 11 6 24
10 5 3 12 13 17
11 4 12 13 14 25
12 4 13 14 15 26
13 5 5 15 14 16
14 4 15 16 17 27
15 4 16 17 12 28
16 2 2 18 5 9
17 1 32 31 40 47
18 2 29 32 31 34
19 1 46 33 43 48
20 3 32 34 39 35
21 4 34 35 36 49
22 4 35 36 37 50
23 3 46 37 38 36
24 4 37 38 39 51
25 4 38 39 34 52
26 5 31 40 41 45
27 4 40 41 42 53
28 4 41 42 43 54
29 5 33 43 42 44
30 4 43 44 45 55
31 4 44 45 40 56
32 2 30 46 33 37
