#Input file for lammps
 
4050 atoms
3 atom types
 
0.0 175.5 xlo xhi
0.0 175.5 ylo yhi
0.0 175.5 zlo zhi
 
Masses
 
1 14
2 12
3 1.008
 
Atoms
 
      1 1 0      92.9799      77.1482      120.542
      2 2 0      92.6596      76.7552      119.049
      3 2 0      92.5352      75.3612      119.083
      4 2 0      92.7429      74.8594      120.427
      5 2 0      92.9955      75.9712      121.207
      6 3 0      92.3144      74.7415      118.227
      7 3 0      92.7072      73.8273       120.75
      8 3 0      93.1963      75.9573      122.272
      9 3 0      93.1554      78.1874      120.951
     10 1 0      92.2259      77.1947      116.544
     11 2 0       92.525      77.5711      117.936
     12 2 0      92.6505      79.0038      117.889
     13 2 0       92.445      79.4703      116.577
     14 2 0      92.1749      78.3643      115.699
     15 3 0      92.8704      79.6329      118.738
     16 3 0      92.4851      80.5074      116.277
     17 3 0      92.0592      76.1426       116.19
     18 1 0      91.8635      79.6192      113.449
     19 2 0      91.5663      79.2296      112.077
     20 2 0      91.4418      77.8036      112.118
     21 2 0      91.6498      77.3399      113.438
     22 2 0      91.9178      78.4456      114.307
     23 3 0      91.2218      77.1721       111.27
     24 3 0       91.611      76.3038      113.741
     25 3 0      92.0283      80.6759      113.795
     26 1 0      91.1276      79.6387       109.56
     27 2 0      91.4229      80.0402      110.926
     28 2 0      91.5437      81.4674       110.87
     29 2 0      91.3351      81.9177      109.547
     30 2 0      91.0699      80.8032      108.685
     31 3 0      91.7617      82.1076      111.711
     32 3 0      91.3715      82.9499      109.233
     33 3 0      90.9679      78.5791      109.222
     34 1 0      90.7553      82.0275      106.403
     35 2 0      90.4724      81.5976      105.069
     36 2 0      90.3531      80.1826      105.114
     37 2 0      90.5584      79.7397      106.451
     38 2 0      90.8156      80.8555      107.299
     39 3 0      90.1409      79.5412      104.271
     40 3 0      90.5249      78.7087       106.77
     41 3 0      90.9164      83.0964      106.718
     42 1 0      90.0376      81.8256      102.536
     43 2 0      90.3227      82.3923      103.858
     44 2 0      90.4561      83.8414      103.913
     45 2 0      90.2431      84.2845      102.618
     46 2 0      89.9918      83.0817      101.844
     47 3 0      90.6688      84.4502      104.776
     48 3 0      90.2564      85.3054      102.271
     49 3 0      89.7551      80.7805      102.219
     50 1 0      89.6545      84.4907      99.6847
     51 2 0      89.4075      83.9274      98.3725
     52 2 0      89.2777      82.4919      98.3002
     53 2 0      89.4696      82.0388      99.6043
     54 2 0      89.7066      83.2268      100.388
     55 3 0      89.0837       81.888      97.4276
     56 3 0      89.4556      81.0141      99.9425
     57 3 0      89.9911      85.5234      99.9918
     58 1 0      89.0455      84.1537      95.8122
     59 2 0      89.2763      84.7251      97.1236
     60 2 0      89.3676      86.1634      97.1998
     61 2 0      89.1375      86.6155      95.9015
     62 2 0      88.9292      85.4236      95.1143
     63 3 0      89.5513      86.7703      98.0726
     64 3 0      89.1069      87.6416      95.5685
     65 3 0      88.6057      83.1512      95.5395
     66 1 0      88.5027      86.8408      92.9762
     67 2 0      88.3134      86.2535      91.6508
     68 2 0      88.2463      84.8166      91.5753
     69 2 0      88.4412      84.3693      92.8828
     70 2 0      88.6191      85.5616        93.67
     71 3 0      88.1059      84.2069      90.6958
     72 3 0      88.4783      83.3433      93.2161
     73 3 0      89.1777      87.7222      93.1768
     74 1 0      87.9986      86.4438      89.0774
     75 2 0      88.2047      87.0344       90.397
     76 2 0      88.2937      88.4713      90.4648
     77 2 0      88.0949      88.9157      89.1582
     78 2 0      87.8984      87.7214      88.3761
     79 3 0       88.458      89.0833      91.3378
     80 3 0      88.0693      89.9399      88.8191
     81 3 0      87.3266       85.559      88.8805
     82 1 0      87.4967      89.1364      86.2324
     83 2 0      87.2776      88.5491      84.9143
     84 2 0       87.189      87.1115      84.8446
     85 2 0      87.3921      86.6664      86.1498
     86 2 0      87.5967      87.8601      86.9323
     87 3 0      87.0233      86.5007      83.9702
     88 3 0      87.4114      85.6425       86.488
     89 3 0      88.1372      90.0411      86.4388
     90 1 0      86.9268      88.7448       82.345
     91 2 0      87.1474      89.3316      83.6634
     92 2 0      87.2331      90.7689      83.7355
     93 2 0      87.0212      91.2162      82.4324
     94 2 0      86.8188      90.0232      81.6479
     95 3 0      87.4025      91.3789      84.6096
     96 3 0      86.9951      92.2412      82.0955
     97 3 0      86.2701      87.8513      82.1374
     98 1 0      86.4041      91.4417      79.5078
     99 2 0      86.1998      90.8507      78.1869
    100 2 0      86.1141      89.4129      78.1173
    101 2 0       86.317      88.9685      79.4227
    102 2 0      86.5118      90.1626      80.2064
    103 3 0      85.9523      88.8013      77.2431
    104 3 0       86.347      87.9445      79.7612
    105 3 0       87.082      92.3243      79.6965
    106 1 0      85.8908      91.0458      75.6125
    107 2 0      86.0938      91.6333      76.9353
    108 2 0      86.1818      93.0708      77.0085
    109 2 0      85.9787      93.5193      75.7049
    110 2 0      85.7799      92.3273      74.9183
    111 3 0      86.3423      93.6796      77.8851
    112 3 0      85.9507      94.5447      75.3698
    113 3 0      85.2117      90.1679      75.4096
    114 1 0      85.3456      93.7463      72.7839
    115 2 0      85.1373      93.1581      71.4632
    116 2 0      85.0499      91.7203      71.3924
    117 2 0      85.2615      91.2733      72.6952
    118 2 0      85.4619       92.467      73.4797
    119 3 0      84.8854      91.1105      70.5178
    120 3 0      85.2958      90.2487      73.0317
    121 3 0      86.0121      94.6356      72.9791
    122 1 0      84.8307      93.3571      68.8884
    123 2 0        85.03      93.9424      70.2123
    124 2 0      85.1141        95.38      70.2885
    125 2 0      84.9171      95.8293      68.9839
    126 2 0      84.7212      94.6382      68.1951
    127 3 0      85.2686      95.9859       71.167
    128 3 0      84.8887      96.8546      68.6499
    129 3 0      84.1616      92.4709       68.687
    130 1 0       84.286      96.0583      66.0596
    131 2 0      84.0772      95.4671      64.7388
    132 2 0      84.0004      94.0292       64.668
    133 2 0      84.2162      93.5841      65.9712
    134 2 0      84.4071      94.7789      66.7554
    135 3 0      83.8398      93.4173      63.7935
    136 3 0      84.2553      92.5598      66.3078
    137 3 0       84.963      96.9403      66.2541
    138 1 0      83.7556      95.6583      62.1652
    139 2 0      83.9592      96.2485      63.4876
    140 2 0      84.0361      97.6861       63.561
    141 2 0      83.8365      98.1325      62.2557
    142 2 0      83.6486      96.9394      61.4687
    143 3 0      84.1915      98.2965      64.4376
    144 3 0      83.8056      99.1577      61.9212
    145 3 0       83.075      94.7794       61.973
    146 1 0      83.2406      98.3639      59.3317
    147 2 0      83.0319      97.7763        58.01
    148 2 0      82.9547      96.3387      57.9351
    149 2 0      83.1591      95.8897      59.2388
    150 2 0      83.3489       97.082      60.0267
    151 3 0      82.7976      95.7313      57.0572
    152 3 0       83.192      94.8646      59.5736
    153 3 0      83.9213      99.2407      59.5315
    154 1 0      82.6993      97.9651      55.4383
    155 2 0      82.9075      98.5569      56.7585
    156 2 0      82.9843      99.9946      56.8288
    157 2 0      82.7767      100.439      55.5238
    158 2 0      82.5882      99.2445      54.7396
    159 3 0      83.1412      100.607      57.7033
    160 3 0      82.7426      101.463       55.186
    161 3 0       82.023      97.0824      55.2476
    162 3 0      82.3733      99.3205      53.6737
    163 1 0      149.868      143.076      58.5502
    164 2 0      148.388      142.977      59.0842
    165 2 0      147.619      142.808      57.9264
    166 2 0      148.461      142.793      56.7476
    167 2 0      149.754      142.955      57.2085
    168 3 0      146.545      142.703      57.9108
    169 3 0      148.143      142.678      55.7197
    170 3 0      150.641       142.99      56.5871
    171 3 0      150.807      143.216       59.164
    172 1 0      146.534      142.945      60.8772
    173 2 0      147.919      143.038      60.3879
    174 2 0        148.7       143.21      61.5841
    175 2 0      147.863      143.222      62.7164
    176 2 0      146.492      143.058      62.3161
    177 3 0      149.773      143.316      61.6119
    178 3 0      148.204      143.338      63.7349
    179 3 0      145.633      142.804      60.2215
    180 1 0      145.318      143.131      64.6292
    181 2 0      143.941      143.037      65.0971
    182 2 0       143.16      142.866       63.909
    183 2 0      144.005      142.856      62.7744
    184 2 0      145.369      143.019      63.1794
    185 3 0      142.086       142.76       63.879
    186 3 0      143.667      142.741      61.7553
    187 3 0      146.214      143.272      65.2937
    188 1 0       142.06      143.001       66.872
    189 2 0      143.438      143.095      66.4179
    190 2 0      144.207      143.264      67.6155
    191 2 0      143.352      143.274      68.7407
    192 2 0       141.99      143.112      68.3239
    193 3 0      145.281      143.369      67.6565
    194 3 0      143.679      143.388       69.763
    195 3 0      141.169      142.864      66.2003
    196 1 0      140.773      143.186      70.6296
    197 2 0      139.406      143.098      71.0416
    198 2 0      138.635      142.933        69.86
    199 2 0      139.504      142.918      68.7339
    200 2 0      140.855      143.074      69.1599
    201 3 0       137.56      142.834      69.8182
    202 3 0      139.183      142.806      67.7089
    203 3 0      141.649      143.328      71.3221
    204 1 0       137.41      143.064      72.6755
    205 2 0      138.843      143.159      72.3831
    206 2 0      139.717      143.324      73.5362
    207 2 0      138.881      143.325      74.6407
    208 2 0      137.543      143.161      74.1008
    209 3 0      140.791       143.42      73.5399
    210 3 0      139.172      143.421      75.6745
    211 3 0      136.531      142.803      72.0174
    212 1 0      136.527      143.199      76.4942
    213 2 0      135.107       143.14      76.7797
    214 2 0      134.227      142.981      75.6471
    215 2 0      135.063      142.958      74.5319
    216 2 0      136.399      143.106      75.0553
    217 3 0      133.151      142.906      75.6506
    218 3 0      134.763      142.862      73.4997
    219 3 0      137.396      143.515      77.1416
    220 1 0      133.096      143.181      78.4193
    221 2 0      134.517      143.225      78.1427
    222 2 0      135.398      143.345      79.2797
    223 2 0      134.562       143.33      80.3951
    224 2 0      133.224       143.21      79.8671
    225 3 0      136.475       143.41      79.2797
    226 3 0      134.862       143.38      81.4305
    227 3 0       132.26      142.759      77.7893
    228 1 0       132.22      143.158      82.2653
    229 2 0      130.783      143.157      82.5318
    230 2 0      129.906       143.06       81.393
    231 2 0      130.748      143.039      80.2803
    232 2 0      132.083      143.129      80.8121
    233 3 0      128.827      143.039      81.3897
    234 3 0      130.449      142.995      79.2441
    235 3 0      132.955      143.819      82.8091
    236 1 0      128.745      143.245      84.1437
    237 2 0      130.182      143.264      83.8812
    238 2 0      131.054      143.383      85.0219
    239 2 0      130.211        143.4      86.1322
    240 2 0      128.877      143.291      85.5979
    241 3 0      132.132      143.429      85.0281
    242 3 0      130.506      143.456      87.1688
    243 3 0      128.012      142.586      83.5947
    244 1 0       127.87      143.264      87.9947
    245 2 0      126.435      143.232      88.2605
    246 2 0      125.561      143.114      87.1202
    247 2 0      126.403      143.101      86.0098
    248 2 0      127.738      143.218      86.5424
    249 3 0      124.482      143.066      87.1159
    250 3 0      126.107      143.039      84.9746
    251 3 0      128.619      143.891      88.5584
    252 1 0        124.4      143.285      89.8785
    253 2 0      125.835      143.318      89.6119
    254 2 0      126.711      143.433       90.751
    255 2 0      125.871      143.436       91.863
    256 2 0      124.535      143.322       91.332
    257 3 0      127.789      143.484      90.7544
    258 3 0      126.168      143.492      92.8993
    259 3 0      123.655      142.642      89.3265
    260 1 0      123.532      143.281      93.7311
    261 2 0      122.094      143.265      93.9938
    262 2 0       121.22      143.149      92.8529
    263 2 0      122.063      143.137      91.7429
    264 2 0      123.398      143.244      92.2763
    265 3 0      120.142      143.106      92.8474
    266 3 0      121.768      143.085      90.7063
    267 3 0      124.257      143.948      94.2821
    268 1 0      120.059       143.36      95.6095
    269 2 0      121.496      143.375       95.343
    270 2 0      122.374      143.492      96.4813
    271 2 0      121.534      143.504      97.5937
    272 2 0      120.198      143.394      97.0642
    273 3 0      123.452      143.534      96.4833
    274 3 0      121.833      143.558      98.6294
    275 3 0      119.324      142.695      95.0703
    276 1 0      119.197      143.333      99.4627
    277 2 0      117.761      143.312       99.728
    278 2 0      116.886      143.195      98.5881
    279 2 0      117.726      143.192      97.4764
    280 2 0      119.062      143.304      98.0083
    281 3 0      115.808      143.149      98.5845
    282 3 0       117.43      143.144      96.4399
    283 3 0      119.931      143.987      100.017
    284 1 0      115.728       143.41      101.347
    285 2 0      117.164      143.421      101.078
    286 2 0      118.044      143.534      102.216
    287 2 0      117.205      143.552      103.329
    288 2 0      115.867      143.445      102.801
    289 3 0      119.122       143.57      102.215
    290 3 0      117.504      143.605      104.364
    291 3 0      114.991      142.754      100.799
    292 1 0      114.866      143.384      105.201
    293 2 0      113.428      143.362      105.464
    294 2 0      112.554      143.256      104.323
    295 2 0      113.396      143.256      103.212
    296 2 0      114.731      143.359      103.746
    297 3 0      111.476      143.213      104.317
    298 3 0      113.101      143.214      102.175
    299 3 0      115.596      144.048      105.748
    300 1 0      111.391      143.445      107.077
    301 2 0      112.829       143.46      106.813
    302 2 0      113.705      143.567      107.953
    303 2 0      112.864      143.582      109.064
    304 2 0      111.527      143.483      108.532
    305 3 0      114.784      143.604      107.957
    306 3 0      113.162      143.633      110.099
    307 3 0      110.664      142.776      106.531
    308 1 0      110.531      143.449      110.934
    309 2 0      109.094      143.428      111.201
    310 2 0      108.216      143.321      110.062
    311 2 0      109.055       143.31      108.949
    312 2 0      110.392      143.412      109.479
    313 3 0      107.138      143.283      110.061
    314 3 0      108.758      143.262      107.913
    315 3 0      111.262      144.116      111.474
    316 1 0      107.055      143.499      112.812
    317 2 0      108.493      143.519       112.55
    318 2 0      109.367      143.626      113.691
    319 2 0      108.524      143.634      114.802
    320 2 0      107.189      143.533      114.268
    321 3 0      110.445      143.665      113.698
    322 3 0      108.818      143.682      115.839
    323 3 0      106.328      142.834      112.262
    324 3 0      106.334      143.486      114.942
    325 1 0      134.795      22.5669      102.892
    326 2 0       133.84      23.5805      102.153
    327 2 0      132.554      23.1715      102.528
    328 2 0      132.617      22.0243      103.411
    329 2 0      133.961      21.7436      103.566
    330 3 0      131.639      23.6446      102.205
    331 3 0      131.783      21.4975      103.856
    332 3 0      134.368      20.9393      104.168
    333 3 0      135.925      22.5446      102.857
    334 1 0      133.261      25.5833      100.634
    335 2 0      134.161      24.6416       101.32
    336 2 0      135.478      25.0705      100.929
    337 2 0      135.394      26.1851      100.073
    338 2 0      134.018      26.5403      99.8613
    339 3 0      136.398      24.6061      101.245
    340 3 0      136.243      26.6958      99.6403
    341 3 0      132.141       25.561      100.703
    342 1 0      134.299      28.5776      98.2789
    343 2 0      133.395       29.502      97.6069
    344 2 0      132.082      29.0775      97.9925
    345 2 0      132.171      27.9574      98.8518
    346 2 0      133.544      27.6088       99.059
    347 3 0      131.159       29.541      97.6768
    348 3 0      131.325      27.4445      99.2848
    349 3 0       135.42      28.6082      98.2041
    350 1 0      132.783       31.505      96.0886
    351 2 0      133.696      30.5902      96.7547
    352 2 0      135.003      31.0267      96.3613
    353 2 0      134.901      32.1445       95.503
    354 2 0      133.523      32.4835      95.3007
    355 3 0      135.932      30.5716      96.6723
    356 3 0      135.739      32.6647      95.0645
    357 3 0      131.663      31.4651      96.1655
    358 1 0      133.764      34.5323      93.7043
    359 2 0      132.838      35.4091      93.0566
    360 2 0      131.538      34.9826       93.439
    361 2 0      131.652      33.8614      94.3075
    362 2 0      133.025      33.5366      94.5059
    363 3 0      130.609       35.434      93.1232
    364 3 0      130.817      33.3359      94.7479
    365 3 0      134.884       34.589       93.608
    366 1 0      132.054      37.3578      91.5583
    367 2 0      133.102      36.5336        92.17
    368 2 0      134.472      36.9001      91.8407
    369 2 0      134.373      38.0016       91.006
    370 2 0      132.948      38.2461      90.8719
    371 3 0      135.379      36.4247      92.1763
    372 3 0      135.185      38.5547      90.5627
    373 3 0      130.941      37.3967      91.7329
    374 1 0      133.402      40.2987       89.341
    375 2 0      132.366      41.0909      88.7091
    376 2 0      131.002      40.7372      89.0212
    377 2 0      131.093      39.6419      89.8785
    378 2 0      132.506       39.396      90.0326
    379 3 0      130.098      41.2068      88.6651
    380 3 0      130.273      39.0932      90.3171
    381 3 0      134.507      40.2233      89.1244
    382 1 0      131.579      43.0042      87.1415
    383 2 0       132.62      42.2267      87.7826
    384 2 0      133.983      42.6063      87.4994
    385 2 0      133.889      43.7247      86.6729
    386 2 0      132.474      43.9509      86.4974
    387 3 0      134.888      42.1449      87.8623
    388 3 0      134.706      44.3023      86.2686
    389 3 0      130.502      43.1419      87.4479
    390 1 0      132.933      46.0563      85.0418
    391 2 0      131.877      46.8076      84.3652
    392 2 0      130.518      46.4109      84.6318
    393 2 0      130.616      45.3134      85.4882
    394 2 0      132.027      45.1089      85.6847
    395 3 0      129.613      46.8448      84.2347
    396 3 0        129.8      44.7311      85.8882
    397 3 0        133.9      45.7549      84.5449
    398 1 0      131.058      48.6832      82.7625
    399 2 0      132.117      47.9248      83.4228
    400 2 0      133.475      48.3106      83.1356
    401 2 0      133.375      49.4093       82.283
    402 2 0      131.961      49.6232      82.1034
    403 3 0      134.383      47.8646      83.5111
    404 3 0      134.189      49.9865      81.8714
    405 3 0      130.089      48.9789      83.2605
    406 1 0      132.419      51.7137      80.6271
    407 2 0      131.362      52.4816      79.9762
    408 2 0      130.002      52.0964      80.2619
    409 2 0      130.102      50.9952      81.1107
    410 2 0      131.516      50.7752      81.2851
    411 3 0      129.095      52.5447      79.8863
    412 3 0      129.287      50.4232       81.526
    413 3 0      133.405      51.4412      80.1537
    414 1 0      130.545      54.3821      78.4004
    415 2 0      131.601      53.6127      79.0505
    416 2 0      132.962      53.9985      78.7686
    417 2 0      132.863      55.1053       77.927
    418 2 0      131.449      55.3253      77.7495
    419 3 0      133.868      53.5475      79.1417
    420 3 0      133.679      55.6818       77.517
    421 3 0      129.566      54.6706       78.882
    422 1 0       131.91       57.424       76.284
    423 2 0       130.85      58.1819      75.6216
    424 2 0      129.491      57.7945      75.9055
    425 2 0      129.591      56.6935      76.7544
    426 2 0      131.005      56.4799      76.9363
    427 3 0      128.583      58.2396      75.5273
    428 3 0      128.778      56.1137      77.1624
    429 3 0      132.874      57.1284      75.7767
    430 1 0      130.036      60.0556      74.0133
    431 2 0      131.093      59.2964      74.6786
    432 2 0      132.454      59.6798      74.3957
    433 2 0      132.358      60.7811      73.5475
    434 2 0      130.944      61.0003      73.3659
    435 3 0      133.359      59.2332       74.777
    436 3 0      133.174      61.3579      73.1402
    437 3 0      129.071      60.3625      74.5108
    438 1 0      131.405      63.1095      71.9179
    439 2 0      130.347      63.8709      71.2579
    440 2 0      128.987      63.4856      71.5421
    441 2 0      129.085      62.3792      72.3835
    442 2 0        130.5      62.1608      72.5623
    443 3 0      128.081      63.9334      71.1652
    444 3 0      128.271      61.7973      72.7874
    445 3 0      132.376      62.8201      71.4216
    446 1 0      129.537      65.7446       69.647
    447 2 0      130.592      64.9866       70.316
    448 2 0      131.953      65.3709      70.0379
    449 2 0      131.858      66.4689      69.1845
    450 2 0      130.445      66.6875      68.9991
    451 3 0      132.856      64.9264      70.4251
    452 3 0      132.675      67.0451      68.7782
    453 3 0      128.566      66.0406      70.1401
    454 1 0      130.906      68.7985      67.5508
    455 2 0      129.846      69.5594      66.8917
    456 2 0      128.487      69.1664      67.1685
    457 2 0      128.587      68.0574       68.007
    458 2 0      130.002      67.8464      68.1919
    459 3 0      127.579      69.6107      66.7894
    460 3 0      127.774      67.4722      68.4076
    461 3 0      131.872      68.4997      67.0482
    462 1 0      129.027      71.4402      65.2934
    463 2 0      130.086      70.6817      65.9575
    464 2 0      131.446      71.0729      65.6825
    465 2 0      131.348      72.1721       64.831
    466 2 0      129.934      72.3833      64.6417
    467 3 0      132.352      70.6305       66.067
    468 3 0      132.163      72.7506      64.4261
    469 3 0      128.064      71.7412      65.7996
    470 1 0      130.402      74.4774      63.1727
    471 2 0      129.345        75.24      62.5121
    472 2 0      127.984        74.85      62.7863
    473 2 0       128.08      73.7475      63.6339
    474 2 0      129.494      73.5341      63.8226
    475 3 0       127.08      75.2954      62.4016
    476 3 0      127.265      73.1675      64.0376
    477 3 0      131.365      74.1709       62.672
    478 1 0      128.523      77.1267      60.9232
    479 2 0      129.583      76.3669      61.5823
    480 2 0      130.942      76.7601      61.3052
    481 2 0      130.841      77.8642      60.4598
    482 2 0      129.428      78.0735      60.2732
    483 3 0       131.85      76.3187      61.6867
    484 3 0      131.654      78.4465       60.055
    485 3 0      127.558      77.4224      61.4282
    486 3 0      129.075      78.9094      59.6687
    487 1 0      127.865      83.1326      107.142
    488 2 0      127.266      81.8404      106.466
    489 2 0      127.204      80.9085      107.509
    490 2 0      127.697      81.4851      108.744
    491 2 0      128.059      82.7817      108.433
    492 3 0      126.839       79.897       107.41
    493 3 0      127.767      80.9994      109.708
    494 3 0      128.471      83.5021      109.131
    495 3 0       128.08      84.1255      106.645
    496 1 0      126.321       80.425      104.528
    497 2 0      126.879      81.6365       105.15
    498 2 0      126.938      82.5867      104.071
    499 2 0      126.455       82.007      102.882
    500 2 0      126.056      80.6476      103.126
    501 3 0        127.3      83.5991      104.158
    502 3 0      126.395      82.5124       101.93
    503 3 0      126.126      79.4611      105.069
    504 1 0      125.251      79.9661      100.755
    505 2 0      124.699      78.7585      100.154
    506 2 0      124.639      77.8095      101.225
    507 2 0      125.126      78.3962      102.417
    508 2 0      125.521      79.7497      102.168
    509 3 0      124.277      76.7956       101.14
    510 3 0      125.189      77.8931       103.37
    511 3 0      125.442      80.9274      100.205
    512 1 0      123.747      77.3145      98.2304
    513 2 0      124.296      78.5257      98.8182
    514 2 0      124.348      79.4657      97.7373
    515 2 0      123.861      78.8677      96.5535
    516 2 0       123.47      77.5129      96.8129
    517 3 0      124.707      80.4814       97.812
    518 3 0      123.794      79.3603      95.5955
    519 3 0      123.563      76.3559      98.7872
    520 1 0      122.656       76.788      94.4431
    521 2 0      122.127      75.5778      93.8948
    522 2 0      122.073      74.6383      94.9592
    523 2 0       122.56      75.2514      96.1473
    524 2 0       122.94      76.5986      95.8794
    525 3 0      121.721      73.6201      94.8835
    526 3 0      122.631      74.7635      97.1081
    527 3 0      122.837      77.7361      93.8632
    528 1 0      121.183      73.9954      92.0888
    529 2 0      121.707       75.292      92.5304
    530 2 0      121.793      76.3244      91.5069
    531 2 0      121.307      75.7413      90.3477
    532 2 0      120.951      74.3859      90.7277
    533 3 0      122.152      77.3341      91.6196
    534 3 0      121.212      76.2054      89.3791
    535 3 0      120.883      73.0767      92.6703
    536 1 0      120.133      73.8788       88.312
    537 2 0      119.648       72.587      87.8684
    538 2 0      119.562      71.5515      88.8698
    539 2 0      120.029      72.1362      90.0455
    540 2 0      120.374      73.4904      89.6856
    541 3 0      119.219      70.5363       88.744
    542 3 0      120.122      71.6636      91.0112
    543 3 0      120.485      74.7755      87.7237
    544 1 0       118.77      70.9756      86.0329
    545 2 0      119.238      72.2743       86.473
    546 2 0      119.288      73.3191      85.4787
    547 2 0      118.785      72.7424      84.3139
    548 2 0      118.468      71.3798      84.6697
    549 3 0      119.621      74.3377      85.6041
    550 3 0      118.649      73.2249      83.3582
    551 3 0      118.323      70.1364      86.6401
    552 1 0      117.566      70.9041      82.2775
    553 2 0      117.136      69.5795      81.8325
    554 2 0       117.11      68.5333      82.8223
    555 2 0      117.581       69.124      83.9956
    556 2 0      117.868      70.4905      83.6446
    557 3 0      116.819      67.5028       82.687
    558 3 0      117.723      68.6409      84.9504
    559 3 0      118.234        71.58       81.669
    560 1 0      116.303       67.928       80.006
    561 2 0      116.748      69.2488       80.442
    562 2 0      116.794       70.287      79.4434
    563 2 0      116.319      69.6953      78.2733
    564 2 0      116.015      68.3333      78.6324
    565 3 0      117.107      71.3116      79.5686
    566 3 0      116.187      70.1717       77.314
    567 3 0      115.639       67.252      80.6191
    568 1 0      115.137      67.8492      76.2339
    569 2 0      114.679      66.5332      75.7987
    570 2 0      114.633      65.4931      76.7965
    571 2 0      115.111      66.0829      77.9654
    572 2 0      115.424      67.4438      77.6057
    573 3 0      114.318      64.4685      76.6698
    574 3 0      115.237      65.6069      78.9249
    575 3 0      115.771      68.5494      75.6183
    576 1 0      113.811      64.8926      73.9772
    577 2 0       114.27      66.2083      74.4127
    578 2 0      114.314      67.2503      73.4172
    579 2 0      113.827      66.6646      72.2497
    580 2 0      113.517      65.3025      72.6071
    581 3 0      114.632      68.2737      73.5437
    582 3 0      113.695      67.1431      71.2913
    583 3 0      113.161      64.2013      74.5867
    584 1 0      112.626      64.8249      70.2107
    585 2 0      112.183      63.5026      69.7738