#Input file for lammps
 
2650 atoms
3 atom types
 
0.0 163.3 xlo xhi
0.0 163.3 ylo yhi
0.0 163.3 zlo zhi
 
Masses
 
1 12
2 14
3 1.008
 
Atoms
 
      1 1 0      92.5798      88.4244      100.418
      2 1 0      92.4725      89.5876      101.189
      3 1 0      91.5229      90.5768      100.785
      4 2 0      90.7337      90.4653      99.7229
      5 3 0      93.2783      87.6495      100.679
      6 3 0       93.089      89.7346      102.065
      7 3 0      91.4053      91.4994      101.356
      8 1 0      91.8064      87.1389      98.4636
      9 1 0      91.7309      88.2952      99.2688
     10 1 0      90.7744      89.3762      98.9269
     11 2 0      89.9861      89.2436      97.8499
     12 3 0      92.4918      86.3467       98.695
     13 1 0      90.9935       85.921       96.513
     14 1 0      90.9501      87.0591      97.3437
     15 1 0      90.0099      88.1691      97.0445
     16 2 0      89.2074      88.0682      95.9746
     17 3 0       91.668      85.1125       96.718
     18 1 0      90.1343       84.759      94.5485
     19 1 0      90.1242      85.8779      95.4054
     20 1 0       89.201      87.0118      95.1458
     21 2 0      88.3816      86.9499      94.0853
     22 3 0      90.7966      83.9341      94.7258
     23 1 0      89.2239      83.6576      92.5679
     24 1 0      89.2495      84.7553      93.4524
     25 1 0      88.3445      85.9124      93.2333
     26 2 0      87.5085      85.8923      92.1847
     27 3 0      89.8727      82.8163      92.7157
     28 1 0      88.2596      82.6214      90.5712
     29 1 0      88.3234      83.6951      91.4844
     30 1 0       87.439      84.8761      91.3092
     31 2 0      86.5863      84.9004      90.2746
     32 3 0      88.8929      81.7636      90.6873
     33 1 0      87.2372      81.6577      88.5592
     34 1 0      87.3431      82.7032      89.5025
     35 1 0      86.4821      83.9085      89.3752
     36 2 0      85.6126      83.9817      88.3577
     37 3 0      87.8526      80.7829      88.6399
     38 1 0      86.1502      80.7779      86.5326
     39 1 0       86.304      81.7889      87.5082
     40 1 0      85.4698      83.0188      87.4332
     41 2 0      84.5828      83.1474      86.4371
     42 3 0      86.7437      79.8851      86.5722
     43 1 0      84.9941      79.9961      84.4967
     44 1 0      85.1995      80.9664      85.5045
     45 1 0      84.3962      82.2199      85.4858
     46 2 0      83.4914      82.4095      84.5153
     47 3 0      85.5614      79.0857      84.4902
     48 1 0      83.7705      79.3214      82.4605
     49 1 0      84.0266      80.2481      83.4971
     50 1 0      83.2574      81.5228      83.5371
     51 2 0      82.3371      81.7734      82.5948
     52 3 0      84.3103      78.3959      82.4085
     53 1 0      82.4859      78.7533      80.4321
     54 1 0       82.789      79.6368       81.493
     55 1 0      82.0562      80.9293      81.5919
     56 2 0      81.1235       81.237      80.6785
     57 3 0       82.999      77.8162      80.3379
     58 1 0      81.1465      78.2881      78.4157
     59 1 0      81.4938      79.1282      79.4976
     60 1 0      80.7986      80.4353      79.6542
     61 2 0      79.8563      80.7966      78.7707
     62 3 0      81.6329      77.3417      78.2814
     63 1 0      79.7558      77.9236      76.4141
     64 1 0      80.1463       78.719      77.5147
     65 1 0      79.4897      80.0375      77.7279
     66 2 0        78.54      80.4509      76.8757
     67 3 0      80.2147      76.9699      76.2401
     68 1 0      78.3164      77.6598      74.4307
     69 1 0      78.7496      78.4086      75.5479
     70 1 0      78.1327      79.7358      75.8169
     71 2 0      77.1775      80.2004      74.9977
     72 3 0      78.7465      76.7009       74.217
     73 1 0      76.8311      77.4975      72.4694
     74 1 0      77.3064      78.1979       73.601
     75 1 0      76.7304       79.531      73.9251
     76 2 0      75.7717      80.0461      73.1409
     77 3 0      77.2313      76.5352      72.2162
     78 1 0      75.3032      77.4369      70.5346
     79 1 0      75.8195      78.0876      71.6781
     80 1 0      75.2857      79.4238      72.0568
     81 2 0      74.3257      79.9884      71.3094
     82 3 0      75.6724      76.4735      70.2421
     83 1 0      73.7361      77.4783      68.6305
     84 1 0       74.292      78.0781      69.7834
     85 1 0      73.8018      79.4145      70.2162
     86 2 0      72.8424      80.0277      69.5073
     87 3 0      74.0735      76.5157      68.2994
     88 1 0      72.1334      77.6216      66.7617
     89 1 0      72.7276      78.1693      67.9214
     90 1 0       72.282      79.5032      68.4073
     91 2 0      71.3253      80.1638      67.7385
     92 3 0      72.4383      76.6619      66.3927
     93 1 0      70.4988      77.8663      64.9322
     94 1 0      71.1298      78.3611      66.0963
     95 1 0      70.7297      79.6896      66.6343
     96 2 0      69.7779      80.3963      66.0073
     97 3 0      70.7705      76.9117      64.5261
     98 1 0       68.836       78.212      63.1463
     99 1 0      69.5023       78.653      64.3122
    100 1 0      69.1485      79.9732      64.9009
    101 2 0      68.2034      80.7247      64.3172
    102 3 0      69.0742      77.2643      62.7043
    103 1 0      67.8488      79.0441      62.5732
    104 1 0      67.5417      80.3535      63.2111
    105 3 0      67.3142      78.7372      61.6742
    106 3 0      66.7833      81.0094      62.7838
    107 1 0      98.1729       135.86      54.4738
    108 1 0      98.2902      136.152      55.8377
    109 1 0      97.1744      135.865      56.6845
    110 2 0       96.031       135.34       56.262
    111 3 0      98.9827      136.056      53.7939
    112 3 0      99.1974      136.581      56.2399
    113 3 0      97.2216      136.077      57.7545
    114 1 0        96.78      134.982       52.641
    115 1 0      96.9408      135.291      54.0082
    116 1 0      95.8365      135.029      54.9632
    117 2 0      94.6894      134.497      54.5156
    118 3 0      97.5673      135.164      51.9354
    119 1 0      95.3469        134.1      50.8753
    120 1 0      95.5489      134.424      52.2322
    121 1 0      94.4743      134.181      53.2281
    122 2 0      93.3145       133.65      52.8137
    123 3 0      96.1148      134.271       50.146
    124 1 0       93.861      133.207        49.16
    125 1 0      94.1057      133.545      50.5061
    126 1 0      93.0608       133.32       51.537
    127 2 0       91.886      132.791      51.1634
    128 3 0       94.608      133.365      48.4066
    129 1 0      92.3167        132.3      47.4993
    130 1 0      92.6071      132.655      48.8328
    131 1 0      91.5933      132.448      49.8984
    132 2 0      90.4046      131.921       49.569
    133 3 0      93.0407      132.445      46.7212
    134 1 0      90.7111       131.38      45.8975
    135 1 0      91.0501      131.751       47.216
    136 1 0      90.0709      131.564      48.3179
    137 2 0       88.869      131.041      48.0362
    138 3 0      91.4094       131.51       45.094
    139 1 0        89.04      130.446       44.362
    140 1 0      89.4321      130.835      45.6619
    141 1 0      88.4918       130.67      46.8016
    142 2 0      87.2773      130.151      46.5727
    143 3 0      89.7091       130.56      43.5314
    144 1 0       87.297      129.498      42.9042
    145 1 0      87.7488      129.906      44.1798
    146 1 0      86.8522      129.765      45.3591
    147 2 0      85.6257      129.253      45.1905
    148 3 0      87.9308      129.592      42.0438
    149 1 0      85.4786      128.537      41.5393
    150 1 0      85.9942      128.964      42.7848
    151 1 0      85.1467       128.85      44.0036
    152 2 0      83.9093      128.345      43.9022
    153 3 0      86.0712       128.61      40.6481
    154 1 0      83.5895      127.567       40.279
    155 1 0      84.1668      128.012      41.4904
    156 1 0      83.3725      127.926      42.7473
    157 2 0      82.1272       127.43      42.7137
    158 3 0      84.1398      127.618      39.3596
    159 1 0      81.6388      126.592      39.1251
    160 1 0      82.2725      127.053      40.3014
    161 1 0       81.534      126.995      41.5931
    162 2 0      80.2843      126.509      41.6239
    163 3 0      82.1485      126.622      38.1819
    164 1 0      79.6342      125.614      38.0752
    165 1 0      80.3205       126.09      39.2153
    166 1 0      79.6386       126.06      40.5383
    167 2 0      78.3878      125.584      40.6303
    168 3 0       80.104      125.625      37.1111
    169 1 0      77.5802      124.636      37.1281
    170 1 0      78.3174      125.124      38.2301
    171 1 0      77.6928      125.122       39.581
    172 2 0      76.4435      124.658      39.7331
    173 3 0      78.0093      124.628      36.1452
    174 1 0      75.4806      123.658      36.2847
    175 1 0      76.2676      124.159      37.3461
    176 1 0      75.7012      124.184      38.7219
    177 2 0       74.456      123.732      38.9339
    178 3 0      75.8677       123.63       35.285
    179 1 0      73.3395      122.683       35.547
    180 1 0      74.1749      123.195      36.5654
    181 1 0      73.6678      123.247      37.9632
    182 2 0      72.4294      122.809      38.2348
    183 3 0      73.6835      122.636      34.5323
    184 1 0      71.1617      121.713      34.9165
    185 1 0      72.0436      122.235      35.8898
    186 1 0       71.597      122.315      37.3068
    187 2 0      70.3682      121.891      37.6376
    188 3 0      71.4615      121.646       33.889
    189 1 0       68.952       120.75      34.3947
    190 1 0      69.8781      121.281       35.321
    191 1 0      69.4934      121.388      36.7542
    192 2 0      68.2766      120.979      37.1438
    193 3 0      69.2069      120.663      33.3566
    194 1 0      66.7154      119.796      33.9828
    195 1 0      67.6837      120.335      34.8602
    196 1 0      67.3615      120.469      36.3066
    197 2 0      66.1596      120.077      36.7544
    198 3 0       66.925       119.69      32.9363
    199 1 0      64.4571      118.853      33.6816
    200 1 0      65.4653      119.399      34.5086
    201 1 0      65.2063       119.56      35.9652
    202 2 0      64.0219      119.185      36.4703
    203 3 0      64.6209      118.728      32.6291
    204 1 0      62.1823      117.925      33.4918
    205 1 0       63.228      118.475      34.2669
    206 1 0      63.0326      118.662      35.7303
    207 2 0      61.8682      118.305       36.292
    208 3 0      62.3002      117.781      32.4356
    209 1 0      60.9769      117.566      34.1354
    210 1 0      60.8451      117.779      35.6028
    211 3 0      60.1488      117.139      33.5701
    212 3 0      59.9229      117.509      36.1173
    213 1 0      44.8703      9.80386      70.3677
    214 1 0      45.5798      8.62809      70.6385
    215 1 0       46.856      8.74435      71.2724
    216 2 0      47.4146      9.89668      71.6224
    217 3 0      43.9062      9.77182      69.8925
    218 3 0      45.1756      7.66018      70.3765
    219 3 0      47.4442      7.85391      71.5025
    220 1 0      44.7854      12.2633      70.4879
    221 1 0      45.4662      11.0539      70.7424
    222 1 0      46.7972      11.0753       71.397
    223 2 0      47.3438      12.2504      71.7425
    224 3 0      43.8221      12.2678      70.0155
    225 1 0      44.7676      14.6975      70.6394
    226 1 0      45.4135      13.4671      70.8754
    227 1 0      46.7473      13.4345      71.5277
    228 2 0      47.3221      14.5921       71.886
    229 3 0      43.8042      14.7348      70.1691
    230 1 0      44.8163       17.129      70.8232
    231 1 0      45.4259      15.8768        71.04
    232 1 0      46.7591      15.7952      71.6888
    233 2 0      47.3681      16.9307      72.0624
    234 3 0      43.8536      17.2005      70.3556
    235 1 0      44.9376      19.5583      71.0427
    236 1 0      45.5078      18.2838      71.2386
    237 1 0      46.8394      18.1522      71.8833
    238 2 0      47.4838      19.2622      72.2726
    239 3 0      43.9768       19.666      70.5783
    240 1 0      45.1364      21.9841      71.2998
    241 1 0      45.6637       20.687      71.4732
    242 1 0      46.9919      20.5016      72.1128
    243 2 0      47.6734       21.583      72.5184
    244 3 0      44.1788      22.1305      70.8395
    245 1 0      45.4196      24.4035       71.598
    246 1 0      45.8988      23.0834      71.7463
    247 1 0      47.2217      22.8401      72.3794
    248 2 0      47.9426      23.8881      72.8022
    249 3 0      44.4669      24.5924      71.1429
    250 1 0      45.7985      26.8119      71.9424
    251 1 0      46.2216      25.4686      72.0616
    252 1 0      47.5367      25.1626      72.6869
    253 2 0      48.3012      26.1708      73.1283
    254 3 0      44.8533      27.0497      71.4942
    255 1 0      46.2844      29.1994       72.338
    256 1 0      46.6451       27.835      72.4252
    257 1 0      47.9487      27.4623      73.0404
    258 2 0      48.7599      28.4244      73.5017
    259 3 0      45.3502      29.4912      71.8987
    260 1 0      46.8807      31.5537      72.7855
    261 1 0      47.1783      30.1726      72.8406
    262 1 0      48.4666      29.7315      73.4438
    263 2 0      49.3226      30.6449       73.924
    264 3 0      45.9599      31.8981      72.3563
    265 1 0      47.5821      33.8664      73.2819
    266 1 0      47.8196      32.4733      73.3068
    267 1 0      49.0889      31.9646      73.8962
    268 2 0      49.9855      32.8297       74.393
    269 3 0      46.6761      34.2589      72.8631
    270 1 0      48.3819      36.1344      73.8236
    271 1 0      48.5614      34.7327      73.8194
    272 1 0       49.809      34.1587      74.3939
    273 2 0      50.7419      34.9755      74.9054
    274 3 0      47.4917       36.572      73.4156
    275 1 0      49.2759      38.3551      74.4084
    276 1 0      49.3976      36.9478      74.3755
    277 1 0      50.6211      36.3107       74.934
    278 2 0      51.5878      37.0782      75.4589
    279 3 0      48.4035      38.8367       74.012
    280 1 0      50.2624      40.5253      75.0353
    281 1 0      50.3254       39.115      74.9734
    282 1 0      51.5226      38.4165      75.5149
    283 2 0      52.5211      39.1332      76.0521
    284 3 0      49.4097      41.0503      74.6514
    285 1 0      51.3393      42.6404      75.7029
    286 1 0      51.3434      41.2301      75.6121
    287 1 0      52.5116      40.4717      76.1355
    288 2 0      53.5399      41.1359      76.6838
    289 3 0      50.5082       43.208      75.3325
    290 1 0      52.5043      44.6957      76.4099
    291 1 0      52.4495      43.2885      76.2904
    292 1 0      53.5863      42.4716      76.7945
    293 2 0      54.6424      43.0815      77.3529
    294 3 0      51.6969      45.3051      76.0538
    295 1 0      53.7549      46.6868      77.1546
    296 1 0      53.6417      45.2856      77.0068
    297 1 0      54.7444      44.4118      77.4905
    298 2 0      55.8261       44.966      78.0578
    299 3 0      52.9729      47.3366      76.8136
    300 1 0      55.0882      48.6089      77.9354
    301 1 0      54.9169      47.2169      77.7597
    302 1 0      55.9834       46.288      78.2219
    303 2 0      57.0884      46.7851      78.7969
    304 3 0      54.3332      49.2977      77.6102
    305 1 0       56.501      50.4579      78.7503
    306 1 0      56.2724      49.0778      78.5473
    307 1 0      57.3003      48.0957      78.9871
    308 2 0      58.4264      48.5344      79.5686
    309 3 0      55.7747      51.1841      78.4417
    310 1 0      57.9902      52.2293      79.5976
    311 1 0       57.705      50.8642      79.3679
    312 1 0      58.6922      49.8313      79.7844
    313 2 0       59.837      50.2105      80.3711
    314 3 0      57.2939      52.9912      79.3061
    315 1 0      59.2114      52.5721      80.2195
    316 1 0      60.1561      51.4908      80.6119
    317 3 0      59.4653      53.6144      80.4127
    318 3 0      61.1033      51.7353      81.0928
    319 1 0      75.6239      95.9656      129.767
    320 1 0      75.2337      96.1032      131.104
    321 1 0      73.9106      95.6977      131.463
    322 2 0      73.0247      95.1978       130.61
    323 3 0       76.608      96.2557      129.444
    324 3 0      75.9121      96.5042      131.844
    325 3 0      73.5637      95.7871      132.494
    326 1 0      75.0249      95.2705       127.48
    327 1 0      74.6731      95.4263      128.838
    328 1 0       73.321      95.0325      129.303
    329 2 0      72.4409      94.5294      128.425
    330 3 0      75.9979      95.5495      127.124
    331 1 0       74.365      94.5631      125.241
    332 1 0      74.0544      94.7352      126.605
    333 1 0      72.7144      94.3565      127.122
    334 2 0      71.8107      93.8503       126.27
    335 3 0       75.329      94.8326      124.855
    336 1 0      73.6387      93.8372      123.029
    337 1 0      73.3708      94.0262        124.4
    338 1 0      72.0451       93.662      124.961
    339 2 0      71.1129      93.1523      124.142
    340 3 0      74.5924      94.0965      122.612
    341 1 0      72.8394      93.0907      120.845
    342 1 0      72.6176      93.2978      122.222
    343 1 0      71.3075      92.9487      122.829
    344 2 0      70.3466      92.4362      122.046
    345 3 0      73.7812      93.3389      120.396
    346 1 0      71.9628      92.3228      118.693
    347 1 0      71.7908       92.549      120.075
    348 1 0       70.499      92.2166      120.729
    349 2 0      69.5086      91.7017      119.986
    350 3 0      72.8906      92.5587      118.209
    351 1 0      71.0026      91.5321      116.577
    352 1 0      70.8856      91.7791      117.963
    353 1 0      69.6153      91.4652      118.669
    354 2 0      68.5944      90.9485      117.971
    355 3 0      71.9136      91.7542      116.057
    356 1 0      69.9487      90.7169      114.507
    357 1 0      69.8949      90.9869      115.893
    358 1 0      68.6499      90.6936      116.654
    359 2 0       67.596       90.176      116.008
    360 3 0      70.8385      90.9224      113.944
    361 1 0      68.7923      89.8765      112.495
    362 1 0      68.8075      90.1709      113.877
    363 1 0      67.5928      89.9005      114.695
    364 2 0      66.5045      89.3828      114.108
    365 3 0      69.6559      90.0631      111.886
    366 1 0      67.5336      89.0138      110.553
    367 1 0      67.6173      89.3315      111.928
    368 1 0      66.4371      89.0856      112.803
    369 2 0      65.3169       88.569      112.277
    370 3 0       68.369       89.181      109.901
    371 1 0      66.1801      88.1327      108.688
    372 1 0      66.3279      88.4713      110.052
    373 1 0      65.1858      88.2507      110.982
    374 2 0      64.0381      87.7365      110.515
    375 3 0      66.9873      88.2815      107.997
    376 1 0      64.7397       87.236        106.9
    377 1 0      64.9485       87.594      108.251
    378 1 0      63.8464      87.3988      109.232
    379 2 0      62.6755      86.8882      108.823
    380 3 0      65.5181       87.367      106.174
    381 1 0       63.217      86.3256      105.189
    382 1 0      63.4859      86.7022      106.524
    383 1 0      62.4258      86.5325      107.555
    384 2 0      61.2343      86.0264      107.204
    385 3 0      63.9652      86.4386      104.429
    386 1 0      61.6149      85.4032      103.559
    387 1 0      61.9439      85.7977      104.875
    388 1 0      60.9276      85.6537      105.952
    389 2 0      59.7181      85.1532      105.659
    390 3 0      62.3312      85.4978      102.766
    391 1 0      59.9367      84.4706      102.012
    392 1 0      60.3253      84.8822      103.307
    393 1 0       59.355      84.7641      104.428
    394 2 0      58.1299      84.2704      104.194
    395 3 0      60.6192      84.5464      101.188
    396 1 0       58.186      83.5298      100.552
    397 1 0      58.6333      83.9577      101.822
    398 1 0       57.711      83.8659      102.986
    399 2 0      56.4731      83.3799      102.812
    400 3 0      58.8329      83.5865      99.6984
    401 1 0      56.3667      82.5829      99.1821
    402 1 0      56.8713       83.026      100.426
    403 1 0      55.9994      82.9608       101.63
    404 2 0       54.751      82.4837      101.516
    405 3 0      56.9767      82.6204      98.3008
    406 1 0      54.4829      81.6322      97.9057
    407 1 0      55.0437      82.0895      99.1199
    408 1 0      54.2238      82.0509      100.361
    409 2 0      52.9677      81.5837      100.308
    410 3 0      55.0546      81.6503      96.9985
    411 1 0       52.539      80.6797      96.7254
    412 1 0      53.1545      81.1502      97.9077
    413 1 0      52.3884      81.1384      99.1834
    414 2 0      51.1273      80.6822      99.1919
    415 3 0      53.0714      80.6785      95.7944
    416 1 0      50.5395      79.7276      95.6441
    417 1 0      51.2081      80.2102       96.792
    418 1 0      50.4973      80.2252      98.0994
    419 2 0      49.2338      79.7809      98.1694
    420 3 0      51.0316      79.7073      94.6913
    421 1 0      49.2089      79.2717      95.7752
    422 1 0      48.5545      79.3132      97.1115
    423 3 0      48.6618      78.8927       94.912
    424 3 0      47.5285       78.966      97.2329
    425 1 0      20.7378      72.0127       87.618
    426 1 0      20.2421      73.3199      87.5504
    427 1 0      19.1661      73.6764      88.4217
    428 2 0      18.6042      72.8476      89.2933
    429 3 0      21.5461      71.6935      86.9846
    430 3 0      20.6598      74.0395        86.86
    431 3 0      18.7482      74.6847      88.4032
    432 1 0      20.6057      69.7831      88.6581
    433 1 0      20.1367        71.11      88.5571
    434 1 0      19.0228       71.571      89.4214
    435 2 0       18.469      70.7176      90.2954
    436 3 0      21.4102      69.4315      88.0415
    437 1 0      20.4195      67.6002      89.7301
    438 1 0      19.9814      68.9334      89.5973
    439 1 0      18.8696      69.4437      90.4394
    440 2 0      18.2937       68.616      91.3238
    441 3 0      21.2214      67.2193       89.128
    442 1 0       20.178      65.4438      90.8436
    443 1 0      19.7721      66.7833      90.6777
    444 1 0      18.6648      67.3373      91.4976
    445 2 0      18.0621      66.5417      92.3942
    446 3 0      20.9765      65.0326      90.2572
    447 1 0       19.876      63.3155      92.0028
    448 1 0      19.5048      64.6608      91.8017
    449 1 0       18.403      65.2589      92.5982
    450 2 0      17.7729      64.4989      93.5061
    451 3 0      20.6699      62.8726      91.4336
    452 1 0      19.5096      61.2183      93.2101
    453 1 0      19.1761      62.5683      92.9713
    454 1 0      18.0815      63.2132      93.7419
    455 2 0      17.4228      62.4922      94.6608
    456 3 0      20.2976       60.742      92.6602
    457 1 0       19.073      59.1573      94.4688
    458 1 0      18.7817      60.5105      94.1889
    459 1 0      17.6964      61.2053      94.9303
    460 2 0      17.0075      60.5283      95.8597
    461 3 0      19.8536      58.6448       93.941
    462 1 0      18.5575      57.1407       95.784
    463 1 0       18.315      58.4943      95.4579
    464 1 0      17.2413      59.2424      96.1663
    465 2 0      16.5193      58.6168      97.1059
    466 3 0      19.3277      56.5871      95.2828
    467 1 0      17.9543      55.1813      97.1587
    468 1 0      17.7656      56.5313      96.7831
    469 1 0      16.7071      57.3349      97.4544
    470 2 0      15.9499      56.7672      98.4036
    471 3 0      18.7108      54.5834      96.6886
    472 1 0      17.2616      53.2915      98.5895
    473 1 0      17.1271      54.6336      98.1659
    474 1 0       16.087      55.4928      98.7969
    475 2 0      15.2963      54.9849      99.7532
    476 3 0      18.0026      52.6513      98.1515
    477 1 0      16.4845      51.4767      100.069
    478 1 0      16.4011       52.808      99.6018
    479 1 0      15.3825      53.7207      100.191
    480 2 0      14.5619      53.2707      101.151
    481 3 0      17.2092      50.7988      99.6621
    482 1 0       15.629      49.7374      101.592
    483 1 0      15.5947      51.0554      101.084
    484 1 0      14.5996      52.0188       101.63
    485 2 0      13.7527       51.625      102.592
    486 3 0      16.3366       49.025      101.215
    487 1 0      14.6985      48.0744      103.155
    488 1 0      14.7131      49.3766      102.607
    489 1 0      13.7433      50.3876      103.109
    490 2 0      12.8722      50.0501      104.071
    491 3 0      15.3877      47.3291      102.809
    492 1 0       13.695      46.4899      104.754
    493 1 0      13.7588      47.7736      104.167
    494 1 0      12.8161        48.83      104.625
    495 2 0      11.9226      48.5494      105.585
    496 3 0      14.3641      45.7129       104.44
    497 1 0      12.6204      44.9873      106.387
    498 1 0      12.7335      46.2497      105.762
    499 1 0        11.82      47.3493      106.175
    500 2 0      10.9058      47.1264      107.131
    501 3 0       13.268        44.18      106.106
    502 1 0      11.4772        43.57       108.05
    503 1 0      11.6392      44.8084      107.389
    504 1 0      10.7568      45.9488      107.755
    505 2 0      9.82396      45.7845      108.705
    506 3 0      12.1015      42.7338      107.803
    507 1 0      10.2678      42.2409       109.74
    508 1 0      10.4781      43.4528      109.043
    509 1 0      9.62882       44.632      109.363
    510 2 0      8.67918      44.5266      110.304
    511 3 0      10.8676      41.3778      109.527
    512 1 0      8.99493      41.0033      111.451
    513 1 0      9.25299      42.1862      110.722
    514 1 0      8.43862      43.4014      110.993
    515 2 0      7.47419      43.3556      111.924
    516 3 0       9.5689      40.1151      111.273
    517 1 0       7.6617      39.8599      113.182
    518 1 0      7.96666      41.0113      112.421
    519 1 0      7.18889      42.2602      112.644
    520 2 0      6.21171      42.2742      113.562
    521 3 0       8.2086      38.9485      113.038
    522 1 0      6.27105      38.8132      114.926
    523 1 0      6.62206      39.9309      114.136
    524 1 0      5.88246      41.2106       114.31
    525 2 0      4.89456      41.2846      115.214
    526 3 0      6.78991      37.8809      114.818
    527 1 0      5.22231      38.9473      115.863
    528 1 0      4.52221      40.2549      115.989
    529 3 0      4.92403       38.107       116.49
    530 3 0      3.71058       40.378      116.706
    531 1 0      105.144      109.703      111.177
    532 1 0      105.849      110.754      110.579
    533 1 0       106.69      111.558       111.41
    534 2 0      106.848      111.373      112.715
    535 3 0      104.498      109.069      110.597
    536 3 0      105.761      110.953       109.52
    537 3 0      107.259      112.388      110.986
    538 1 0      104.616      108.448       113.23
    539 1 0      105.308      109.496      112.587
    540 1 0      106.204      110.383      113.368
    541 2 0      106.349      110.179      114.686
    542 3 0      103.963      107.797      112.682
    543 1 0      104.138      107.251      115.301
    544 1 0       104.81      108.285      114.619
    545 1 0      105.719        109.2      115.356
    546 2 0      105.886      109.024      116.675
    547 3 0      103.479      106.583       114.78
    548 1 0      103.705      106.099      117.407
    549 1 0      104.357       107.12      116.686
    550 1 0      105.275      108.058      117.381
    551 2 0       105.47      107.916        118.7
    552 3 0       103.04      105.415      116.916
    553 1 0      103.323      104.998      119.553
    554 1 0      103.952      106.003       118.79
    555 1 0      104.878      106.965      119.441
    556 2 0      105.102      106.858      120.759
    557 3 0      102.652      104.298      119.094
    558 1 0      102.993       103.95       121.74
    559 1 0      103.598      104.938      120.934
    560 1 0      104.532      105.923      121.537
    561 2 0      104.786      105.856      122.852
    562 3 0      102.317      103.234      121.316
    563 1 0      102.721      102.963       123.97
    564 1 0      103.298      103.929      123.117
    565 1 0       104.24      104.939      123.667
    566 2 0      104.527      104.915      124.976
    567 3 0      102.041      102.229      123.585
    568 1 0      102.517      102.045      126.246
    569 1 0       103.06      102.985       125.34
    570 1 0      104.008       104.02      125.833
    571 2 0      104.333      104.045      127.133
    572 3 0      101.832      101.293      125.907
    573 1 0      102.388       101.21      128.565
    574 1 0      102.894      102.118      127.606
    575 1 0      103.847      103.178      128.035
    576 2 0      104.212      103.256      129.322
    577 3 0      101.701      100.438      128.279
    578 1 0      102.341      100.466      130.919
    579 1 0      102.807      101.339      129.909
    580 1 0      103.763      102.422      130.271
    581 2 0      104.167      102.554      131.543
    582 3 0      101.652      99.6772      130.686
    583 1 0      102.373       99.812      133.298
    584 1 0        102.8      100.651      132.243
    585 1 0      103.757      101.754      132.536