#Input file for lammps
 
2650 atoms
3 atom types
 
0.0 163.3 xlo xhi
0.0 163.3 ylo yhi
0.0 163.3 zlo zhi
 
Masses
 
1 12
2 14
3 1.008
 
Atoms
 
      1 1 0      92.5798      88.4244      100.418
      2 1 0      92.4725      89.5876      101.189
      3 1 0      91.5229      90.5768      100.785
      4 2 0      90.7337      90.4653      99.7229
      5 3 0      93.2783      87.6495      100.679
      6 3 0       93.089      89.7346      102.065
      7 3 0      91.4053      91.4994      101.356
      8 1 0      91.8064      87.1389      98.4636
      9 1 0      91.7309      88.2952      99.2688
     10 1 0      90.7744      89.3762      98.9269
     11 2 0      89.9861      89.2436      97.8499
     12 3 0      92.4918      86.3467       98.695
     13 1 0      90.9935       85.921       96.513
     14 1 0      90.9501      87.0591      97.3437
     15 1 0      90.0099      88.1691      97.0445
     16 2 0      89.2074      88.0682      95.9746
     17 3 0       91.668      85.1125       96.718
     18 1 0      90.1343       84.759      94.5485
     19 1 0      90.1242      85.8779      95.4054
     20 1 0       89.201      87.0118      95.1458
     21 2 0      88.3816      86.9499      94.0853
     22 3 0      90.7966      83.9341      94.7258
     23 1 0      89.2239      83.6576      92.5679
     24 1 0      89.2495      84.7553      93.4524
     25 1 0      88.3445      85.9124      93.2333
     26 2 0      87.5085      85.8923      92.1847
     27 3 0      89.8727      82.8163      92.7157
     28 1 0      88.2596      82.6214      90.5712
     29 1 0      88.3234      83.6951      91.4844
     30 1 0       87.439      84.8761      91.3092
     31 2 0      86.5863      84.9004      90.2746
     32 3 0      88.8929      81.7636      90.6873
     33 1 0      87.2372      81.6577      88.5592
     34 1 0      87.3431      82.7032      89.5025
     35 1 0      86.4821      83.9085      89.3752
     36 2 0      85.6126      83.9817      88.3577
     37 3 0      87.8526      80.7829      88.6399
     38 1 0      86.1502      80.7779      86.5326
     39 1 0       86.304      81.7889      87.5082
     40 1 0      85.4698      83.0188      87.4332
     41 2 0      84.5828      83.1474      86.4371
     42 3 0      86.7437      79.8851      86.5722
     43 1 0      84.9941      79.9961      84.4967
     44 1 0      85.1995      80.9664      85.5045
     45 1 0      84.3962      82.2199      85.4858
     46 2 0      83.4914      82.4095      84.5153
     47 3 0      85.5614      79.0857      84.4902
     48 1 0      83.7705      79.3214      82.4605
     49 1 0      84.0266      80.2481      83.4971
     50 1 0      83.2574      81.5228      83.5371
     51 2 0      82.3371      81.7734      82.5948
     52 3 0      84.3103      78.3959      82.4085
     53 1 0      82.4859      78.7533      80.4321
     54 1 0       82.789      79.6368       81.493
     55 1 0      82.0562      80.9293      81.5919
     56 2 0      81.1235       81.237      80.6785
     57 3 0       82.999      77.8162      80.3379
     58 1 0      81.1465      78.2881      78.4157
     59 1 0      81.4938      79.1282      79.4976
     60 1 0      80.7986      80.4353      79.6542
     61 2 0      79.8563      80.7966      78.7707
     62 3 0      81.6329      77.3417      78.2814
     63 1 0      79.7558      77.9236      76.4141
     64 1 0      80.1463       78.719      77.5147
     65 1 0      79.4897      80.0375      77.7279
     66 2 0        78.54      80.4509      76.8757
     67 3 0      80.2147      76.9699      76.2401
     68 1 0      78.3164      77.6598      74.4307
     69 1 0      78.7496      78.4086      75.5479
     70 1 0      78.1327      79.7358      75.8169
     71 2 0      77.1775      80.2004      74.9977
     72 3 0      78.7465      76.7009       74.217
     73 1 0      76.8311      77.4975      72.4694
     74 1 0      77.3064      78.1979       73.601
     75 1 0      76.7304       79.531      73.9251
     76 2 0      75.7717      80.0461      73.1409
     77 3 0      77.2313      76.5352      72.2162
     78 1 0      75.3032      77.4369      70.5346
     79 1 0      75.8195      78.0876      71.6781
     80 1 0      75.2857      79.4238      72.0568
     81 2 0      74.3257      79.9884      71.3094
     82 3 0      75.6724      76.4735      70.2421
     83 1 0      73.7361      77.4783      68.6305
     84 1 0       74.292      78.0781      69.7834
     85 1 0      73.8018      79.4145      70.2162
     86 2 0      72.8424      80.0277      69.5073
     87 3 0      74.0735      76.5157      68.2994
     88 1 0      72.1334      77.6216      66.7617
     89 1 0      72.7276      78.1693      67.9214
     90 1 0       72.282      79.5032      68.4073
     91 2 0      71.3253      80.1638      67.7385
     92 3 0      72.4383      76.6619      66.3927
     93 1 0      70.4988      77.8663      64.9322
     94 1 0      71.1298      78.3611      66.0963
     95 1 0      70.7297      79.6896      66.6343
     96 2 0      69.7779      80.3963      66.0073
     97 3 0      70.7705      76.9117      64.5261
     98 1 0       68.836       78.212      63.1463
     99 1 0      69.5023       78.653      64.3122
    100 1 0      69.1485      79.9732      64.9009
    101 2 0      68.2034      80.7247      64.3172
    102 3 0      69.0742      77.2643      62.7043
    103 1 0      67.8488      79.0441      62.5732
    104 1 0      67.5417      80.3535      63.2111
    105 3 0      67.3142      78.7372      61.6742
    106 3 0      66.7833      81.0094      62.7838
    107 1 0      18.6129      61.3933      81.5812
    108 1 0      19.1909      62.6667      81.6418
    109 1 0      19.3767      63.2596      82.9294
    110 2 0      19.0365      62.6812      84.0749
    111 3 0      18.4512      60.9029      80.6379
    112 3 0      19.4884      63.1873      80.7422
    113 3 0      19.8236      64.2511      83.0242
    114 1 0      17.6565      59.4768      82.7988
    115 1 0      18.2421      60.7604      82.8141
    116 1 0      18.4741      61.4547      84.1042
    117 2 0       18.123      60.8526      85.2501
    118 3 0      17.4809       58.959      81.8757
    119 1 0      16.7217      57.6153      84.0676
    120 1 0      17.3092      58.8963      84.0382
    121 1 0      17.5623      59.6333      85.3026
    122 2 0       17.223      59.0594      86.4664
    123 3 0      16.5336      57.0725      83.1617
    124 1 0      15.8001      55.7914      85.3988
    125 1 0      16.3892      57.0696      85.3231
    126 1 0       16.661      57.8435      86.5609
    127 2 0      16.3364      57.3048      87.7459
    128 3 0       15.599       55.223      84.5117
    129 1 0      14.8923      54.0079      86.7988
    130 1 0       15.483      55.2821      86.6733
    131 1 0      15.7736      56.0932      87.8832
    132 2 0      15.4651      55.5927      89.0887
    133 3 0      14.6777       53.413      85.9325
    134 1 0      13.9999      52.2684      88.2711
    135 1 0      14.5914      53.5369      88.0925
    136 1 0       14.902      54.3871      89.2708
    137 2 0      14.6112      53.9282      90.4968
    138 3 0      13.7711      51.6458      87.4284
    139 1 0      13.1252       50.579      89.8214
    140 1 0      13.7168      51.8392      89.5843
    141 1 0      14.0486      52.7306       90.727
    142 2 0      13.7776      52.3182      91.9732
    143 3 0       12.881      49.9266      89.0057
    144 1 0      12.2719       48.949      91.4577
    145 1 0      12.8623      50.1968      91.1546
    146 1 0      13.2167      51.1318      92.2565
    147 2 0      12.9688       50.773      93.5236
    148 3 0      12.0104      48.2634      90.6751
    149 1 0      11.4459      47.3919      93.1857
    150 1 0      12.0332      48.6226      92.8115
    151 1 0       12.411      49.6022      93.8671
    152 2 0      12.1892      49.3033      95.1548
    153 3 0      11.1657      46.6711      92.4423
    154 1 0      10.6526      45.9192      95.0023
    155 1 0      11.2348      47.1288      94.5586
    156 1 0      11.6361      48.1522      95.5634
    157 2 0       11.441      47.9144      96.8685
    158 3 0      10.3547      45.1655      94.2996
    159 1 0      9.89416      44.5341       96.898
    160 1 0      10.4701      45.7208      96.3902
    161 1 0      10.8938      46.7855      97.3411
    162 2 0      10.7245      46.6061      98.6595
    163 3 0      9.58046      43.7517      96.2347
    164 1 0      9.17057      43.2356      98.8644
    165 1 0      9.73934      44.3978      98.2964
    166 1 0      10.1841      45.5007       99.192
    167 2 0      10.0399      45.3774       100.52
    168 3 0      8.84251      42.4274      98.2403
    169 1 0      8.48208      42.0234      100.897
    170 1 0      9.04258      43.1591       100.27
    171 1 0      9.50716      44.2971      101.109
    172 2 0      9.38786      44.2292      102.443
    173 3 0      8.14036      41.1912      100.313
    174 1 0      7.82961       40.899      102.991
    175 1 0      8.38065      42.0056      102.306
    176 1 0      8.86397      43.1762      103.088
    177 2 0      8.76987      43.1641      104.426
    178 3 0      7.47483      40.0443      102.449
    179 1 0      7.21453      39.8648      105.143
    180 1 0      7.75493      40.9399      104.402
    181 1 0      8.25596      42.1407      105.124
    182 2 0      8.18735      42.1844      106.462
    183 3 0      6.84736      38.9892      104.644
    184 1 0      6.63824      38.9231      107.348
    185 1 0      7.16685      39.9645      106.552
    186 1 0      7.68456      41.1929      107.213
    187 2 0      7.64173      41.2928      108.549
    188 3 0      6.25935      38.0284      106.894
    189 1 0      6.10195       38.076      109.601
    190 1 0       6.6177      39.0816      108.752
    191 1 0      7.15108      40.3352       109.35
    192 2 0      7.13417      40.4911      110.682
    193 3 0      5.71218      37.1641      109.193
    194 1 0      5.60697      37.3255      111.898
    195 1 0      6.10877      38.2931      110.998
    196 1 0      6.65666      39.5693      111.532
    197 2 0      6.66584      39.7811      112.856
    198 3 0      5.20716      36.3983      111.536
    199 1 0      5.15436      36.6731      114.232
    200 1 0      5.64123      37.6011      113.283
    201 1 0      6.20251       38.897      113.752
    202 2 0      6.23783      39.1645      115.066
    203 3 0      4.74539      35.7328      113.918
    204 1 0      4.74517      36.1205      116.598
    205 1 0      5.21611      37.0068      115.603
    206 1 0       5.7895      38.3197      116.006
    207 2 0      5.85097      38.6425      117.307
    208 3 0      4.32798      35.1691      116.332
    209 1 0      4.83434      36.5117      117.953
    210 1 0      5.41859      37.8388      118.289
    211 3 0      4.48131      35.8543      118.748
    212 3 0      5.49594      38.1585      119.329
    213 1 0      70.3948      159.439      107.483
    214 1 0       71.061      160.614      107.115
    215 1 0      70.4172      161.488      106.184
    216 2 0      69.2261      161.259      105.645
    217 3 0      70.8351      158.748       108.18
    218 3 0      72.0336      160.854      107.521
    219 3 0      70.8999      162.415      105.868
    220 1 0      68.4008      158.011      107.249
    221 1 0       69.107      159.183      106.905
    222 1 0       68.518       160.15      105.947
    223 2 0      67.3133      159.899      105.413
    224 3 0      68.8105        157.3      107.941
    225 1 0      66.3987      156.647       106.97
    226 1 0      67.1373      157.805      106.654
    227 1 0      66.5917      158.803      105.699
    228 2 0      65.3892      158.583      105.148
    229 3 0      66.7814      155.917      107.657
    230 1 0      64.3704      155.332      106.643
    231 1 0      65.1426      156.476      106.356
    232 1 0      64.6377      157.501      105.408
    233 2 0      63.4388      157.319      104.834
    234 3 0      64.7246      154.585      107.326
    235 1 0      62.3126      154.072      106.265
    236 1 0      63.1202      155.199      106.008
    237 1 0      62.6573      156.252      105.067
    238 2 0      61.4642      156.109      104.471
    239 3 0      62.6361      153.306      106.942
    240 1 0      60.2246      152.872      105.831
    241 1 0      61.0692       153.98      105.608
    242 1 0      60.6521      155.059      104.676
    243 2 0      59.4668       154.96      104.057
    244 3 0      60.5148      152.086      106.501
    245 1 0      58.1056      151.736      105.337
    246 1 0      58.9898      152.822      105.151
    247 1 0      58.6228       153.93       104.23
    248 2 0      57.4481      153.878      103.587
    249 3 0      58.3586      150.931      105.999
    250 1 0      55.9546      150.678      104.776
    251 1 0       56.882      151.735      104.633
    252 1 0      56.5701      152.872      103.725
    253 2 0      55.4096      152.874      103.055
    254 3 0       56.164      149.851      105.426
    255 1 0      53.7749      149.709      104.141
    256 1 0      54.7465      150.732      104.045
    257 1 0      54.4947      151.898      103.154
    258 2 0      53.3521       151.96      102.455
    259 3 0       53.935       148.86      104.777
    260 1 0      51.5752      148.841       103.43
    261 1 0      52.5878      149.826      103.382
    262 1 0      52.3989      151.018      102.509
    263 2 0      51.2773      151.141      101.785
    264 3 0      51.6861      147.972       104.05
    265 1 0      49.3648      148.072      102.649
    266 1 0       50.413       149.02      102.645
    267 1 0      50.2881      150.236      101.794
    268 2 0      49.1891      150.415      101.047
    269 3 0      49.4296      147.188      103.252
    270 1 0      47.1491      147.401      101.802
    271 1 0      48.2292      148.311      101.841
    272 1 0      48.1676      149.547      101.014
    273 2 0      47.0928      149.779      100.246
    274 3 0      47.1699      146.503      102.389
    275 1 0      44.9318      146.825      100.893
    276 1 0      46.0415      147.696      100.975
    277 1 0      46.0423      148.949      100.172
    278 2 0      44.9937      149.234       99.386
    279 3 0      44.9087      145.916      101.462
    280 1 0      42.7167      146.345      99.9245
    281 1 0       43.854      147.175      100.048
    282 1 0      43.9168      148.443      99.2723
    283 2 0      42.8965      148.779      98.4691
    284 3 0      42.6493      145.427      100.474
    285 1 0      40.5082      145.963      98.8972
    286 1 0      41.6708      146.749      99.0635
    287 1 0      41.7955      148.029      98.3153
    288 2 0      40.8057      148.416       97.497
    289 3 0      40.3963      145.036       99.426
    290 1 0      38.3113      145.678      97.8138
    291 1 0      39.4966      146.419       98.022
    292 1 0       39.683      147.709      97.3034
    293 2 0      38.7262      148.146      96.4717
    294 3 0      38.1547      144.746      98.3206
    295 1 0      36.1306      145.492      96.6766
    296 1 0       37.336      146.187       96.926
    297 1 0      37.5841      147.483      96.2388
    298 2 0      36.6622       147.97      95.3953
    299 3 0      35.9298      144.556      97.1604
    300 1 0      33.9714      145.405      95.4883
    301 1 0      35.1942      146.052      95.7783
    302 1 0      35.5033      147.352      95.1238
    303 2 0      34.6186      147.888      94.2704
    304 3 0      33.7268      144.467       95.948
    305 1 0      31.8385      145.417      94.2517
    306 1 0       33.076      146.015      94.5815
    307 1 0      33.4456      147.316       93.961
    308 2 0         32.6      147.901      93.0995
    309 3 0      31.5507       144.48      94.6863
    310 1 0      29.7367      145.528      92.9695
    311 1 0      30.9862      146.077      93.3381
    312 1 0      31.4152      147.376      92.7529
    313 2 0      30.6107      148.007      91.8852
    314 3 0      29.4066      144.593      93.3782
    315 1 0      28.9295      146.236      92.0512
    316 1 0      29.4167      147.531      91.5024
    317 3 0        27.96      145.844      91.7438
    318 3 0      28.8083      148.092      90.7927
    319 1 0      87.3991      66.7164      106.339
    320 1 0      88.4329      67.3154      105.609
    321 1 0      89.1001      68.4392      106.189
    322 2 0      88.8036      68.9541      107.376
    323 3 0      86.8652      65.8685      105.948
    324 3 0      88.7191      66.9401      104.637
    325 3 0      89.9121      68.9376      105.656
    326 1 0      86.0363      66.6929      108.391
    327 1 0      87.0717       67.266      107.623
    328 1 0      87.8209       68.436      108.142
    329 2 0      87.5053      68.9407      109.344
    330 3 0      85.4834      65.8465      108.032
    331 1 0      84.7254      66.7279      110.448
    332 1 0       85.752      67.2699      109.648
    333 1 0      86.5317      68.4413      110.123
    334 2 0      86.2416      68.9704      111.321
    335 3 0      84.1548      65.8822      110.116
    336 1 0      83.4539      66.8212      112.527
    337 1 0      84.4714      67.3309      111.695
    338 1 0       85.277      68.5007      112.128
    339 2 0      85.0183      69.0595       113.32
    340 3 0      82.8655      65.9768      112.225
    341 1 0      82.2251      66.9784      114.631
    342 1 0       83.232      67.4529      113.766
    343 1 0      84.0634      68.6203      114.156
    344 2 0      83.8385      69.2096       115.34
    345 3 0      81.6184      66.1363      114.361
    346 1 0      81.0424      67.2035      116.762
    347 1 0      82.0369      67.6398      115.862
    348 1 0       82.895      68.8031      116.205
    349 2 0      82.7067      69.4244      117.378
    350 3 0      80.4169       66.365      116.525
    351 1 0      79.9114      67.5027       118.92
    352 1 0      80.8907      67.8963      117.981
    353 1 0      81.7767      69.0537      118.274
    354 2 0      81.6287      69.7089      119.434
    355 3 0       79.266      66.6694      118.721
    356 1 0       78.841      67.8857      121.104
    357 1 0      79.8006      68.2295      120.125
    358 1 0      80.7157      69.3788      120.361
    359 2 0      80.6139      70.0715      121.503
    360 3 0      78.1737      67.0601      120.949
    361 1 0      77.8428      68.3623       123.31
    362 1 0      78.7781      68.6509       122.29
    363 1 0      79.7223      69.7887      122.465
    364 2 0      79.6717      70.5214      123.586
    365 3 0       77.153      67.5475      123.206
    366 1 0      76.9256      68.9353       125.53
    367 1 0      77.8337       69.168      124.472
    368 1 0      78.8057      70.2909      124.584
    369 2 0      78.8068      71.0621       125.68
    370 3 0      76.2153      68.1333      125.475
    371 1 0      76.0906      69.5997      127.755
    372 1 0      76.9708      69.7795      126.664
    373 1 0       77.968      70.8842      126.711
    374 2 0      78.0181        71.69      127.782
    375 3 0       75.363      68.8117      127.746
    376 1 0      75.3357      70.3496      129.978
    377 1 0      76.1873      70.4782      128.858
    378 1 0      77.2071      71.5626      128.842
    379 2 0      77.3037      72.3993      129.886
    380 3 0      74.5932      69.5765      130.014
    381 1 0        74.66      71.1814      132.198
    382 1 0      75.4815       71.259      131.051
    383 1 0      76.5213       72.321      130.972
    384 2 0      76.6636      73.1864      131.987
    385 3 0       73.904      70.4248      132.277
    386 1 0      74.0641      72.0934      134.409
    387 1 0      74.8537      72.1194      133.237
    388 1 0      75.9112      73.1569      133.096
    389 2 0      76.0988      74.0492       134.08
    390 3 0      73.2962       71.355      134.532
    391 1 0      73.5493      73.0837      136.607
    392 1 0      74.3052      73.0579      135.414
    393 1 0      75.3782      74.0687      135.211
    394 2 0       75.611      74.9861      136.161
    395 3 0       72.771      72.3652      136.775
    396 1 0      73.1168      74.1501      138.788
    397 1 0      73.8375      74.0727      137.575
    398 1 0      74.9237      75.0547      137.311
    399 2 0      75.2013      75.9953      138.226
    400 3 0      72.3297      73.4533      139.001
    401 1 0      72.7676      75.2905      140.947
    402 1 0      73.4516      75.1619      139.717
    403 1 0      74.5488      76.1127      139.392
    404 2 0      74.8708      77.0747      140.269
    405 3 0      71.9734      74.6168      141.203
    406 1 0      72.5024       76.502      143.079
    407 1 0      73.1484      76.3226      141.834
    408 1 0      74.2543      77.2404      141.449
    409 2 0      74.6202      78.2217      142.287
    410 3 0      71.7028      75.8529      143.378
    411 1 0      72.3218      77.7819      145.178
    412 1 0      72.9287      77.5524      143.922
    413 1 0      74.0409      78.4352      143.477
    414 2 0      74.4501      79.4338      144.274
    415 3 0      71.5187      77.1588       145.52
    416 1 0      72.2263      79.1273      147.241
    417 1 0      72.7928      78.8484      145.976
    418 1 0      73.9089      79.6944      145.473
    419 2 0      74.3606      80.7082      146.226
    420 3 0      71.4212      78.5314      147.624
    421 1 0       72.741      80.2076      147.992
    422 1 0      73.8588      81.0152      147.431
    423 3 0      72.3292      80.4524      148.971
    424 3 0      74.2694      81.8526      147.995
    425 1 0      102.692      75.4192      37.1302
    426 1 0      103.886      75.6449      36.4344
    427 1 0      104.364      76.9888      36.3393
    428 2 0       103.75      78.0401      36.8685
    429 3 0      102.289      74.4274      37.2309
    430 3 0       104.43      74.8278       35.982
    431 3 0       105.29      77.2113      35.8061
    432 1 0      100.816       76.367      38.4151
    433 1 0      102.022      76.5494      37.7054
    434 1 0      102.595      77.9091      37.5545
    435 2 0      101.959      78.9577       38.097
    436 3 0      100.386      75.3915      38.5348
    437 1 0      98.9879      77.3725      39.6789
    438 1 0      100.194      77.5106      38.9626
    439 1 0      100.809      78.8504      38.7833
    440 2 0      100.198      79.9203      39.3132
    441 3 0      98.5332      76.4106      39.8156
    442 1 0      97.1917      78.4441      40.9331
    443 1 0      98.3979      78.5362        40.21
    444 1 0      99.0496      79.8548      40.0053
    445 2 0      98.4705      80.9502      40.5197
    446 3 0      96.7117      77.4974      41.0874
    447 1 0      95.4291      79.5887      42.1775
    448 1 0      96.6347      79.6314      41.4474
    449 1 0       97.323      80.9272      41.2171
    450 2 0      96.7786      82.0479      41.7139
    451 3 0      94.9229       78.659      42.3503
    452 1 0      93.7036      80.8102      43.4105
    453 1 0       94.907      80.7999       42.674
    454 1 0       95.634      82.0698      42.4162
    455 2 0      95.1275      83.2159      42.8936
    456 3 0      93.1699         79.9      43.6029
    457 1 0      92.0203      82.1148      44.6299
    458 1 0      93.2195       82.046      43.8874
    459 1 0      93.9875      83.2862      43.6002
    460 2 0      93.5234      84.4583      44.0556
    461 3 0       91.457      81.2274      44.8438
    462 1 0      90.3875      83.5119      45.8319
    463 1 0      91.5792      83.3764      45.0843
    464 1 0      92.3907      84.5823      44.7655
    465 2 0      91.9756      85.7819      45.1949
    466 3 0       89.791      82.6527      46.0703
    467 1 0      88.8178      85.0087      47.0102
    468 1 0      89.9977      84.8011      46.2591
    469 1 0      90.8539      85.9672      45.9072
    470 2 0      90.4939      87.1948      46.3071
    471 3 0      88.1858      84.1834      47.2752
    472 1 0      87.3219      86.6036      48.1577
    473 1 0      88.4863      86.3249      47.4057
    474 1 0      89.3868      87.4467      47.0202
    475 2 0      89.0831      88.6994      47.3894
    476 3 0      86.6564      85.8141      48.4484
    477 1 0      85.9035      88.2877      49.2709
    478 1 0      87.0503       87.943        48.52
    479 1 0       87.993      89.0172      48.1018
    480 2 0      87.7434      90.2906       48.441
    481 3 0      85.2086      87.5333      49.5847
    482 1 0      84.5622      90.0528       50.349
    483 1 0      85.6897      89.6456      49.6007
    484 1 0      86.6716      90.6703      49.1513
    485 2 0      86.4742      91.9603       49.461
    486 3 0      83.8407      89.3335      50.6842
    487 1 0       83.298      91.8937      51.3911
    488 1 0      84.4041      91.4254      50.6469
    489 1 0      85.4225      92.3992      50.1677
    490 2 0      85.2769      93.7028      50.4478
    491 3 0      82.5515      91.2109      51.7469
    492 1 0      82.1126      93.8071      52.3957
    493 1 0      83.1949      93.2781      51.6571
    494 1 0      84.2475      94.1992      51.1493
    495 2 0       84.154      95.5138      51.3992
    496 3 0      81.3423      93.1625      52.7716
    497 1 0      81.0084      95.7891      53.3608
    498 1 0      82.0645      95.2003      52.6294
    499 1 0      83.1491      96.0669      52.0941
    500 2 0      83.1082      97.3897      52.3131
    501 3 0      80.2158      95.1845      53.7562
    502 1 0      79.9879      97.8354      54.2841
    503 1 0      81.0157      97.1882      53.5615
    504 1 0      82.1301      97.9983      52.9997
    505 2 0       82.142      99.3264      53.1872
    506 3 0      79.1746      97.2723      54.6983
    507 1 0      79.0534      99.9416      55.1638
    508 1 0      80.0507      99.2376      54.4514
    509 1 0      81.1926      99.9892      53.8642
    510 2 0      81.2575       101.32      54.0198
    511 3 0      78.2211      99.4212      55.5958
    512 1 0       78.207      102.103      55.9976
    513 1 0      79.1719      101.344       55.297
    514 1 0      80.3388      102.035      54.6857
    515 2 0      80.4568      103.366      54.8088
    516 3 0      77.3575      101.626      56.4466
    517 1 0      77.4506      104.314      56.7839
    518 1 0      78.3811      103.501      56.0964
    519 1 0      79.5707      104.132      55.4623
    520 2 0      79.7417      105.459      55.5525
    521 3 0      76.5859      103.882      57.2487
    522 1 0      76.7859       106.57      57.5206
    523 1 0      77.6802      105.706      56.8479
    524 1 0      78.8898      106.274      56.1923
    525 2 0      79.1135      107.595      56.2494
    526 3 0      75.9079      106.183      58.0003
    527 1 0      77.0707      107.953      57.5496
    528 1 0      78.2977      108.457      56.8742
    529 3 0       76.404      108.649      58.0589
    530 3 0      78.5345      109.521      56.8855
    531 1 0      108.246      128.051      91.6201
    532 1 0      107.145      127.427      92.2168
    533 1 0      107.361      126.188       92.896
    534 2 0      108.541      125.588      92.9988
    535 3 0      108.138      128.984      91.0971
    536 3 0      106.159      127.868      92.1661
    537 3 0      106.531      125.666      93.3758
    538 1 0      110.662      128.005      91.1392
    539 1 0      109.525       127.41      91.7261
    540 1 0      109.653      126.123      92.4521
    541 2 0      110.854      125.533      92.5443
    542 3 0       110.59      128.935      90.6102
    543 1 0      113.059      127.894      90.6995
    544 1 0      111.898      127.335       91.271
    545 1 0      111.973      126.047      92.0081
    546 2 0      113.159      125.431      92.1188
    547 3 0      113.019      128.823      90.1647
    548 1 0      115.458       127.72      90.2968
    549 1 0      114.273      127.196      90.8522
    550 1 0      114.299      125.912      91.5977
    551 2 0      115.466      125.264      91.7311
    552 3 0      115.452      128.647      89.7563
    553 1 0      117.861      127.476      89.9343
    554 1 0      116.651      126.991      90.4721
    555 1 0      116.627      125.711      91.2254
    556 2 0      117.772      125.031      91.3827
    557 3 0       117.89      128.398      89.3885
    558 1 0      120.266      127.157      89.6149
    559 1 0       119.03      126.715      90.1331
    560 1 0      118.954      125.441      90.8941
    561 2 0      120.073      124.726      91.0768
    562 3 0      120.334      128.074       89.064
    563 1 0      122.672      126.756      89.3429
    564 1 0       121.41      126.362      89.8388
    565 1 0      121.276      125.097      90.6071
    566 2 0      122.366      124.345      90.8173
    567 3 0      122.782      127.667      88.7871
    568 1 0      125.075      126.264      89.1253
    569 1 0      123.785      125.926      89.5945
    570 1 0      123.589      124.671      90.3697
    571 2 0      124.643      123.879      90.6108
    572 3 0      125.234      127.165      88.5651
    573 1 0      127.465       125.67      88.9701
    574 1 0       126.15      125.392      89.4088
    575 1 0      125.887      124.152      90.1895
    576 2 0      126.899      123.318      90.4643
    577 3 0      127.678      126.557      88.4063
    578 1 0      129.832       124.97      88.8813
    579 1 0      128.495      124.755      89.2883
    580 1 0      128.164      123.533      90.0726
    581 2 0      129.132      122.658      90.3807
    582 3 0      130.098      125.842      88.3156
    583 1 0      132.166      124.171      88.8574
    584 1 0      130.813      124.015      89.2337
    585 1 0      130.413      122.815      90.0195