# LAMMPS data file written by Ovito Basic 3.0.0-dev791
1032 atoms
2 atom types
0.0 22.897228241 xlo xhi
0.0 22.897228241 ylo yhi
0.0 22.720413208 zlo zhi

Atoms  # charge

1 1 0.0 0.0 0.0 22.010398865
2 1 0.0 0.0 0.0 19.170345306
3 1 0.0 0.0 0.0 16.330295563
4 1 0.0 0.0 0.0 13.490243912
5 1 0.0 20.079105377 0.35226503 22.010398865
6 1 0.0 20.079105377 0.35226503 19.170345306
7 1 0.0 20.079105377 0.35226503 16.330295563
8 1 0.0 20.079105377 0.35226503 13.490243912
9 1 0.0 20.431371689 3.170385361 22.010398865
10 1 0.0 20.431371689 3.170385361 19.170345306
11 1 0.0 20.431371689 3.170385361 16.330295563
12 1 0.0 20.431371689 3.170385361 13.490243912
13 1 0.0 20.783636093 5.988505363 22.010398865
14 1 0.0 20.783636093 5.988505363 19.170345306
15 1 0.0 20.783636093 5.988505363 16.330295563
16 1 0.0 20.783636093 5.988505363 13.490243912
17 1 0.0 21.135900497 8.806625366 22.010398865
18 1 0.0 21.135900497 8.806625366 19.170345306
19 1 0.0 21.135900497 8.806625366 16.330295563
20 1 0.0 21.135900497 8.806625366 13.490243912
21 1 0.0 21.488166809 11.624746323 22.010398865
22 1 0.0 21.488166809 11.624746323 19.170345306
23 1 0.0 21.488166809 11.624746323 16.330295563
24 1 0.0 21.488166809 11.624746323 13.490243912
25 1 0.0 21.840431213 14.442866325 22.010398865
26 1 0.0 21.840431213 14.442866325 19.170345306
27 1 0.0 21.840431213 14.442866325 16.330295563
28 1 0.0 21.840431213 14.442866325 13.490243912
29 1 0.0 22.192697525 17.260986328 22.010398865
30 1 0.0 22.192697525 17.260986328 19.170345306
31 1 0.0 22.192697525 17.260986328 16.330295563
32 1 0.0 22.192697525 17.260986328 13.490243912
33 1 0.0 22.544961929 20.079105377 22.010398865
34 1 0.0 22.544961929 20.079105377 19.170345306
35 1 0.0 22.544961929 20.079105377 16.330295563
36 1 0.0 22.544961929 20.079105377 13.490243912
37 1 0.0 0.35226503 2.818120241 22.010398865
38 1 0.0 0.35226503 2.818120241 19.170345306
39 1 0.0 0.35226503 2.818120241 16.330295563
40 1 0.0 0.35226503 2.818120241 13.490243912
41 1 0.0 0.70453006 5.636240482 22.010398865
42 1 0.0 0.70453006 5.636240482 19.170345306
43 1 0.0 0.70453006 5.636240482 16.330295563
44 1 0.0 0.70453006 5.636240482 13.490243912
45 1 0.0 1.056795001 8.454360008 22.010398865
46 1 0.0 1.056795001 8.454360008 19.170345306
47 1 0.0 1.056795001 8.454360008 16.330295563
48 1 0.0 1.056795001 8.454360008 13.490243912
49 1 0.0 1.409060121 11.272480965 22.010398865
50 1 0.0 1.409060121 11.272480965 19.170345306
51 1 0.0 1.409060121 11.272480965 16.330295563
52 1 0.0 1.409060121 11.272480965 13.490243912
53 1 0.0 1.761325121 14.090600967 22.010398865
54 1 0.0 1.761325121 14.090600967 19.170345306
55 1 0.0 1.761325121 14.090600967 16.330295563
56 1 0.0 1.761325121 14.090600967 13.490243912
57 1 0.0 2.113590002 16.908720016 22.010398865
58 1 0.0 2.113590002 16.908720016 19.170345306
59 1 0.0 2.113590002 16.908720016 16.330295563
60 1 0.0 2.113590002 16.908720016 13.490243912
61 1 0.0 2.465855122 19.726840973 22.010398865
62 1 0.0 2.465855122 19.726840973 19.170345306
63 1 0.0 2.465855122 19.726840973 16.330295563
64 1 0.0 2.465855122 19.726840973 13.490243912
65 1 0.0 2.818120241 22.544961929 22.010398865
66 1 0.0 2.818120241 22.544961929 19.170345306
67 1 0.0 2.818120241 22.544961929 16.330295563
68 1 0.0 2.818120241 22.544961929 13.490243912
69 1 0.0 3.170385361 2.465855122 22.010398865
70 1 0.0 3.170385361 2.465855122 19.170345306
71 1 0.0 3.170385361 2.465855122 16.330295563
72 1 0.0 3.170385361 2.465855122 13.490243912
73 1 0.0 3.522650242 5.283975124 22.010398865
74 1 0.0 3.522650242 5.283975124 19.170345306
75 1 0.0 3.522650242 5.283975124 16.330295563
76 1 0.0 3.522650242 5.283975124 13.490243912
77 1 0.0 3.874915361 8.102095604 22.010398865
78 1 0.0 3.874915361 8.102095604 19.170345306
79 1 0.0 3.874915361 8.102095604 16.330295563
80 1 0.0 3.874915361 8.102095604 13.490243912
81 1 0.0 4.227180004 10.920215607 22.010398865
82 1 0.0 4.227180004 10.920215607 19.170345306
83 1 0.0 4.227180004 10.920215607 16.330295563
84 1 0.0 4.227180004 10.920215607 13.490243912
85 1 0.0 4.579445362 13.738336563 22.010398865
86 1 0.0 4.579445362 13.738336563 19.170345306
87 1 0.0 4.579445362 13.738336563 16.330295563
88 1 0.0 4.579445362 13.738336563 13.490243912
89 1 0.0 4.931710243 16.556455612 22.010398865
90 1 0.0 4.931710243 16.556455612 19.170345306
91 1 0.0 4.931710243 16.556455612 16.330295563
92 1 0.0 4.931710243 16.556455612 13.490243912
93 1 0.0 5.283975124 19.374576569 22.010398865
94 1 0.0 5.283975124 19.374576569 19.170345306
95 1 0.0 5.283975124 19.374576569 16.330295563
96 1 0.0 5.283975124 19.374576569 13.490243912
97 1 0.0 5.636240482 22.192697525 22.010398865
98 1 0.0 5.636240482 22.192697525 19.170345306
99 1 0.0 5.636240482 22.192697525 16.330295563
100 1 0.0 5.636240482 22.192697525 13.490243912
101 1 0.0 5.988505363 2.113590002 22.010398865
102 1 0.0 5.988505363 2.113590002 19.170345306
103 1 0.0 5.988505363 2.113590002 16.330295563
104 1 0.0 5.988505363 2.113590002 13.490243912
105 1 0.0 6.340770721 4.931710243 22.010398865
106 1 0.0 6.340770721 4.931710243 19.170345306
107 1 0.0 6.340770721 4.931710243 16.330295563
108 1 0.0 6.340770721 4.931710243 13.490243912
109 1 0.0 6.693035603 7.749830723 22.010398865
110 1 0.0 6.693035603 7.749830723 19.170345306
111 1 0.0 6.693035603 7.749830723 16.330295563
112 1 0.0 6.693035603 7.749830723 13.490243912
113 1 0.0 7.045300484 10.567950249 22.010398865
114 1 0.0 7.045300484 10.567950249 19.170345306
115 1 0.0 7.045300484 10.567950249 16.330295563
116 1 0.0 7.045300484 10.567950249 13.490243912
117 1 0.0 7.397565842 13.386071205 22.010398865
118 1 0.0 7.397565842 13.386071205 19.170345306
119 1 0.0 7.397565842 13.386071205 16.330295563
120 1 0.0 7.397565842 13.386071205 13.490243912
121 1 0.0 7.749830723 16.204191208 22.010398865
122 1 0.0 7.749830723 16.204191208 19.170345306
123 1 0.0 7.749830723 16.204191208 16.330295563
124 1 0.0 7.749830723 16.204191208 13.490243912
125 1 0.0 8.102095604 19.022310257 22.010398865
126 1 0.0 8.102095604 19.022310257 19.170345306
127 1 0.0 8.102095604 19.022310257 16.330295563
128 1 0.0 8.102095604 19.022310257 13.490243912
129 1 0.0 8.454360008 21.840431213 22.010398865
130 1 0.0 8.454360008 21.840431213 19.170345306
131 1 0.0 8.454360008 21.840431213 16.330295563
132 1 0.0 8.454360008 21.840431213 13.490243912
133 1 0.0 8.806625366 1.761325121 22.010398865
134 1 0.0 8.806625366 1.761325121 19.170345306
135 1 0.0 8.806625366 1.761325121 16.330295563
136 1 0.0 8.806625366 1.761325121 13.490243912
137 1 0.0 9.158890724 4.579445362 22.010398865
138 1 0.0 9.158890724 4.579445362 19.170345306
139 1 0.0 9.158890724 4.579445362 16.330295563
140 1 0.0 9.158890724 4.579445362 13.490243912
141 1 0.0 9.511155128 7.397565842 22.010398865
142 1 0.0 9.511155128 7.397565842 19.170345306
143 1 0.0 9.511155128 7.397565842 16.330295563
144 1 0.0 9.511155128 7.397565842 13.490243912
145 1 0.0 9.863420486 10.215685844 22.010398865
146 1 0.0 9.863420486 10.215685844 19.170345306
147 1 0.0 9.863420486 10.215685844 16.330295563
148 1 0.0 9.863420486 10.215685844 13.490243912
149 1 0.0 10.215685844 13.033805847 22.010398865
150 1 0.0 10.215685844 13.033805847 19.170345306
151 1 0.0 10.215685844 13.033805847 16.330295563
152 1 0.0 10.215685844 13.033805847 13.490243912
153 1 0.0 10.567950249 15.85192585 22.010398865
154 1 0.0 10.567950249 15.85192585 19.170345306
155 1 0.0 10.567950249 15.85192585 16.330295563
156 1 0.0 10.567950249 15.85192585 13.490243912
157 1 0.0 10.920215607 18.670045853 22.010398865
158 1 0.0 10.920215607 18.670045853 19.170345306
159 1 0.0 10.920215607 18.670045853 16.330295563
160 1 0.0 10.920215607 18.670045853 13.490243912
161 1 0.0 11.272480965 21.488166809 22.010398865
162 1 0.0 11.272480965 21.488166809 19.170345306
163 1 0.0 11.272480965 21.488166809 16.330295563
164 1 0.0 11.272480965 21.488166809 13.490243912
165 1 0.0 11.624746323 1.409060121 22.010398865
166 1 0.0 11.624746323 1.409060121 19.170345306
167 1 0.0 11.624746323 1.409060121 16.330295563
168 1 0.0 11.624746323 1.409060121 13.490243912
169 1 0.0 11.977010727 4.227180004 22.010398865
170 1 0.0 11.977010727 4.227180004 19.170345306
171 1 0.0 11.977010727 4.227180004 16.330295563
172 1 0.0 11.977010727 4.227180004 13.490243912
173 1 0.0 12.329276085 7.045300484 22.010398865
174 1 0.0 12.329276085 7.045300484 19.170345306
175 1 0.0 12.329276085 7.045300484 16.330295563
176 1 0.0 12.329276085 7.045300484 13.490243912
177 1 0.0 12.681541443 9.863420486 22.010398865
178 1 0.0 12.681541443 9.863420486 19.170345306
179 1 0.0 12.681541443 9.863420486 16.330295563
180 1 0.0 12.681541443 9.863420486 13.490243912
181 1 0.0 13.033805847 12.681541443 22.010398865
182 1 0.0 13.033805847 12.681541443 19.170345306
183 1 0.0 13.033805847 12.681541443 16.330295563
184 1 0.0 13.033805847 12.681541443 13.490243912
185 1 0.0 13.386071205 15.499661446 22.010398865
186 1 0.0 13.386071205 15.499661446 19.170345306
187 1 0.0 13.386071205 15.499661446 16.330295563
188 1 0.0 13.386071205 15.499661446 13.490243912
189 1 0.0 13.738336563 18.317781448 22.010398865
190 1 0.0 13.738336563 18.317781448 19.170345306
191 1 0.0 13.738336563 18.317781448 16.330295563
192 1 0.0 13.738336563 18.317781448 13.490243912
193 1 0.0 14.090600967 21.135900497 22.010398865
194 1 0.0 14.090600967 21.135900497 19.170345306
195 1 0.0 14.090600967 21.135900497 16.330295563
196 1 0.0 14.090600967 21.135900497 13.490243912
197 1 0.0 14.442866325 1.056795001 22.010398865
198 1 0.0 14.442866325 1.056795001 19.170345306
199 1 0.0 14.442866325 1.056795001 16.330295563
200 1 0.0 14.442866325 1.056795001 13.490243912
201 1 0.0 14.795131683 3.874915361 22.010398865
202 1 0.0 14.795131683 3.874915361 19.170345306
203 1 0.0 14.795131683 3.874915361 16.330295563
204 1 0.0 14.795131683 3.874915361 13.490243912
205 1 0.0 15.147396088 6.693035603 22.010398865
206 1 0.0 15.147396088 6.693035603 19.170345306
207 1 0.0 15.147396088 6.693035603 16.330295563
208 1 0.0 15.147396088 6.693035603 13.490243912
209 1 0.0 15.499661446 9.511155128 22.010398865
210 1 0.0 15.499661446 9.511155128 19.170345306
211 1 0.0 15.499661446 9.511155128 16.330295563
212 1 0.0 15.499661446 9.511155128 13.490243912
213 1 0.0 15.85192585 12.329276085 22.010398865
214 1 0.0 15.85192585 12.329276085 19.170345306
215 1 0.0 15.85192585 12.329276085 16.330295563
216 1 0.0 15.85192585 12.329276085 13.490243912
217 1 0.0 16.204191208 15.147396088 22.010398865
218 1 0.0 16.204191208 15.147396088 19.170345306
219 1 0.0 16.204191208 15.147396088 16.330295563
220 1 0.0 16.204191208 15.147396088 13.490243912
221 1 0.0 16.556455612 17.965515137 22.010398865
222 1 0.0 16.556455612 17.965515137 19.170345306
223 1 0.0 16.556455612 17.965515137 16.330295563
224 1 0.0 16.556455612 17.965515137 13.490243912
225 1 0.0 16.908720016 20.783636093 22.010398865
226 1 0.0 16.908720016 20.783636093 19.170345306
227 1 0.0 16.908720016 20.783636093 16.330295563
228 1 0.0 16.908720016 20.783636093 13.490243912
229 1 0.0 17.260986328 0.70453006 22.010398865
230 1 0.0 17.260986328 0.70453006 19.170345306
231 1 0.0 17.260986328 0.70453006 16.330295563
232 1 0.0 17.260986328 0.70453006 13.490243912
233 1 0.0 17.613250732 3.522650242 22.010398865
234 1 0.0 17.613250732 3.522650242 19.170345306
235 1 0.0 17.613250732 3.522650242 16.330295563
236 1 0.0 17.613250732 3.522650242 13.490243912
237 1 0.0 17.965515137 6.340770721 22.010398865
238 1 0.0 17.965515137 6.340770721 19.170345306
239 1 0.0 17.965515137 6.340770721 16.330295563
240 1 0.0 17.965515137 6.340770721 13.490243912
241 1 0.0 18.317781448 9.158890724 22.010398865
242 1 0.0 18.317781448 9.158890724 19.170345306
243 1 0.0 18.317781448 9.158890724 16.330295563
244 1 0.0 18.317781448 9.158890724 13.490243912
245 1 0.0 18.670045853 11.977010727 22.010398865
246 1 0.0 18.670045853 11.977010727 19.170345306
247 1 0.0 18.670045853 11.977010727 16.330295563
248 1 0.0 18.670045853 11.977010727 13.490243912
249 1 0.0 19.022310257 14.795131683 22.010398865
250 1 0.0 19.022310257 14.795131683 19.170345306
251 1 0.0 19.022310257 14.795131683 16.330295563
252 1 0.0 19.022310257 14.795131683 13.490243912
253 1 0.0 19.374576569 17.613250732 22.010398865
254 1 0.0 19.374576569 17.613250732 19.170345306
255 1 0.0 19.374576569 17.613250732 16.330295563
256 1 0.0 19.374576569 17.613250732 13.490243912
257 1 0.0 19.726840973 20.431371689 22.010398865
258 1 0.0 19.726840973 20.431371689 19.170345306
259 1 0.0 19.726840973 20.431371689 16.330295563
260 1 0.0 19.726840973 20.431371689 13.490243912
261 1 0.0 1.58519268 1.232927561 20.590373993
262 1 0.0 1.58519268 1.232927561 17.750322342
263 1 0.0 1.58519268 1.232927561 14.910269737
264 1 0.0 1.58519268 1.232927561 12.070218086
265 1 0.0 21.664299011 1.58519268 20.590373993
266 1 0.0 21.664299011 1.58519268 17.750322342
267 1 0.0 21.664299011 1.58519268 14.910269737
268 1 0.0 21.664299011 1.58519268 12.070218086
269 1 0.0 22.01656723 4.403312683 20.590373993
270 1 0.0 22.01656723 4.403312683 17.750322342
271 1 0.0 22.01656723 4.403312683 14.910269737
272 1 0.0 22.01656723 4.403312683 12.070218086
273 1 0.0 22.368829727 7.221433163 20.590373993
274 1 0.0 22.368829727 7.221433163 17.750322342
275 1 0.0 22.368829727 7.221433163 14.910269737
276 1 0.0 22.368829727 7.221433163 12.070218086
277 1 0.0 22.721094131 10.039552689 20.590373993
278 1 0.0 22.721094131 10.039552689 17.750322342
279 1 0.0 22.721094131 10.039552689 14.910269737
280 1 0.0 22.721094131 10.039552689 12.070218086
281 1 0.0 0.176133186 12.857674599 20.590373993
282 1 0.0 0.176133186 12.857674599 17.750322342
283 1 0.0 0.176133186 12.857674599 14.910269737
284 1 0.0 0.176133186 12.857674599 12.070218086
285 1 0.0 0.528396845 15.675794601 20.590373993
286 1 0.0 0.528396845 15.675794601 17.750322342
287 1 0.0 0.528396845 15.675794601 14.910269737
288 1 0.0 0.528396845 15.675794601 12.070218086
289 1 0.0 0.880663157 18.493915558 20.590373993
290 1 0.0 0.880663157 18.493915558 17.750322342
291 1 0.0 0.880663157 18.493915558 14.910269737
292 1 0.0 0.880663157 18.493915558 12.070218086
293 1 0.0 1.232926965 21.312034607 20.590373993
294 1 0.0 1.232926965 21.312034607 17.750322342
295 1 0.0 1.232926965 21.312034607 14.910269737
296 1 0.0 1.232926965 21.312034607 12.070218086
297 1 0.0 1.937457681 4.051047802 20.590373993
298 1 0.0 1.937457681 4.051047802 17.750322342
299 1 0.0 1.937457681 4.051047802 14.910269737
300 1 0.0 1.937457681 4.051047802 12.070218086
301 1 0.0 2.289722681 6.869168282 20.590373993
302 1 0.0 2.289722681 6.869168282 17.750322342
303 1 0.0 2.289722681 6.869168282 14.910269737
304 1 0.0 2.289722681 6.869168282 12.070218086
305 1 0.0 2.641987801 9.687288284 20.590373993
306 1 0.0 2.641987801 9.687288284 17.750322342
307 1 0.0 2.641987801 9.687288284 14.910269737
308 1 0.0 2.641987801 9.687288284 12.070218086
309 1 0.0 2.994252682 12.505408287 20.590373993
310 1 0.0 2.994252682 12.505408287 17.750322342
311 1 0.0 2.994252682 12.505408287 14.910269737
312 1 0.0 2.994252682 12.505408287 12.070218086
313 1 0.0 3.346517801 15.323529243 20.590373993
314 1 0.0 3.346517801 15.323529243 17.750322342
315 1 0.0 3.346517801 15.323529243 14.910269737
316 1 0.0 3.346517801 15.323529243 12.070218086
317 1 0.0 3.698782921 18.141649246 20.590373993
318 1 0.0 3.698782921 18.141649246 17.750322342
319 1 0.0 3.698782921 18.141649246 14.910269737
320 1 0.0 3.698782921 18.141649246 12.070218086
321 1 0.0 4.051047802 20.95977211 20.590373993
322 1 0.0 4.051047802 20.95977211 17.750322342
323 1 0.0 4.051047802 20.95977211 14.910269737
324 1 0.0 4.051047802 20.95977211 12.070218086
325 1 0.0 4.403312683 0.880663157 20.590373993
326 1 0.0 4.403312683 0.880663157 17.750322342
327 1 0.0 4.403312683 0.880663157 14.910269737
328 1 0.0 4.403312683 0.880663157 12.070218086
329 1 0.0 4.755578041 3.698782921 20.590373993
330 1 0.0 4.755578041 3.698782921 17.750322342
331 1 0.0 4.755578041 3.698782921 14.910269737
332 1 0.0 4.755578041 3.698782921 12.070218086
333 1 0.0 5.107842922 6.516902924 20.590373993
334 1 0.0 5.107842922 6.516902924 17.750322342
335 1 0.0 5.107842922 6.516902924 14.910269737
336 1 0.0 5.107842922 6.516902924 12.070218086
337 1 0.0 5.46010828 9.335022926 20.590373993
338 1 0.0 5.46010828 9.335022926 17.750322342
339 1 0.0 5.46010828 9.335022926 14.910269737
340 1 0.0 5.46010828 9.335022926 12.070218086
341 1 0.0 5.812373161 12.153142929 20.590373993
342 1 0.0 5.812373161 12.153142929 17.750322342
343 1 0.0 5.812373161 12.153142929 14.910269737
344 1 0.0 5.812373161 12.153142929 12.070218086
345 1 0.0 6.164638042 14.971264839 20.590373993
346 1 0.0 6.164638042 14.971264839 17.750322342
347 1 0.0 6.164638042 14.971264839 14.910269737
348 1 0.0 6.164638042 14.971264839 12.070218086
349 1 0.0 6.516902924 17.789386749 20.590373993
350 1 0.0 6.516902924 17.789386749 17.750322342
351 1 0.0 6.516902924 17.789386749 14.910269737
352 1 0.0 6.516902924 17.789386749 12.070218086
353 1 0.0 6.869168282 20.607505798 20.590373993
354 1 0.0 6.869168282 20.607505798 17.750322342
355 1 0.0 6.869168282 20.607505798 14.910269737
356 1 0.0 6.869168282 20.607505798 12.070218086
357 1 0.0 7.221433163 0.528396845 20.590373993
358 1 0.0 7.221433163 0.528396845 17.750322342
359 1 0.0 7.221433163 0.528396845 14.910269737
360 1 0.0 7.221433163 0.528396845 12.070218086
361 1 0.0 7.573698044 3.346517801 20.590373993
362 1 0.0 7.573698044 3.346517801 17.750322342
363 1 0.0 7.573698044 3.346517801 14.910269737
364 1 0.0 7.573698044 3.346517801 12.070218086
365 1 0.0 7.925962925 6.164638042 20.590373993
366 1 0.0 7.925962925 6.164638042 17.750322342
367 1 0.0 7.925962925 6.164638042 14.910269737
368 1 0.0 7.925962925 6.164638042 12.070218086
369 1 0.0 8.278227806 8.982757568 20.590373993
370 1 0.0 8.278227806 8.982757568 17.750322342
371 1 0.0 8.278227806 8.982757568 14.910269737
372 1 0.0 8.278227806 8.982757568 12.070218086
373 1 0.0 8.630493164 11.800877571 20.590373993
374 1 0.0 8.630493164 11.800877571 17.750322342
375 1 0.0 8.630493164 11.800877571 14.910269737
376 1 0.0 8.630493164 11.800877571 12.070218086
377 1 0.0 8.982757568 14.618999481 20.590373993
378 1 0.0 8.982757568 14.618999481 17.750322342
379 1 0.0 8.982757568 14.618999481 14.910269737
380 1 0.0 8.982757568 14.618999481 12.070218086
381 1 0.0 9.335022926 17.437120438 20.590373993
382 1 0.0 9.335022926 17.437120438 17.750322342
383 1 0.0 9.335022926 17.437120438 14.910269737
384 1 0.0 9.335022926 17.437120438 12.070218086
385 1 0.0 9.687288284 20.255239487 20.590373993
386 1 0.0 9.687288284 20.255239487 17.750322342
387 1 0.0 9.687288284 20.255239487 14.910269737
388 1 0.0 9.687288284 20.255239487 12.070218086
389 1 0.0 10.039552689 0.176133186 20.590373993
390 1 0.0 10.039552689 0.176133186 17.750322342
391 1 0.0 10.039552689 0.176133186 14.910269737
392 1 0.0 10.039552689 0.176133186 12.070218086
393 1 0.0 10.391818047 2.994252682 20.590373993
394 1 0.0 10.391818047 2.994252682 17.750322342
395 1 0.0 10.391818047 2.994252682 14.910269737
396 1 0.0 10.391818047 2.994252682 12.070218086
397 1 0.0 10.744083405 5.812373161 20.590373993
398 1 0.0 10.744083405 5.812373161 17.750322342
399 1 0.0 10.744083405 5.812373161 14.910269737
400 1 0.0 10.744083405 5.812373161 12.070218086
401 1 0.0 11.096348763 8.630493164 20.590373993
402 1 0.0 11.096348763 8.630493164 17.750322342
403 1 0.0 11.096348763 8.630493164 14.910269737
404 1 0.0 11.096348763 8.630493164 12.070218086
405 1 0.0 11.448613167 11.448613167 20.590373993
406 1 0.0 11.448613167 11.448613167 17.750322342
407 1 0.0 11.448613167 11.448613167 14.910269737
408 1 0.0 11.448613167 11.448613167 12.070218086
409 1 0.0 11.800877571 14.266734123 20.590373993
410 1 0.0 11.800877571 14.266734123 17.750322342
411 1 0.0 11.800877571 14.266734123 14.910269737
412 1 0.0 11.800877571 14.266734123 12.070218086
413 1 0.0 12.153142929 17.084854126 20.590373993
414 1 0.0 12.153142929 17.084854126 17.750322342
415 1 0.0 12.153142929 17.084854126 14.910269737
416 1 0.0 12.153142929 17.084854126 12.070218086
417 1 0.0 12.505408287 19.90297699 20.590373993
418 1 0.0 12.505408287 19.90297699 17.750322342
419 1 0.0 12.505408287 19.90297699 14.910269737
420 1 0.0 12.505408287 19.90297699 12.070218086
421 1 0.0 12.857672691 22.721094131 20.590373993
422 1 0.0 12.857672691 22.721094131 17.750322342
423 1 0.0 12.857672691 22.721094131 14.910269737
424 1 0.0 12.857672691 22.721094131 12.070218086
425 1 0.0 13.209939003 2.641987562 20.590373993
426 1 0.0 13.209939003 2.641987562 17.750322342
427 1 0.0 13.209939003 2.641987562 14.910269737
428 1 0.0 13.209939003 2.641987562 12.070218086
429 1 0.0 13.562204361 5.460107803 20.590373993
430 1 0.0 13.562204361 5.460107803 17.750322342
431 1 0.0 13.562204361 5.460107803 14.910269737
432 1 0.0 13.562204361 5.460107803 12.070218086
433 1 0.0 13.914469719 8.278227806 20.590373993
434 1 0.0 13.914469719 8.278227806 17.750322342
435 1 0.0 13.914469719 8.278227806 14.910269737
436 1 0.0 13.914469719 8.278227806 12.070218086
437 1 0.0 14.266734123 11.096348763 20.590373993
438 1 0.0 14.266734123 11.096348763 17.750322342
439 1 0.0 14.266734123 11.096348763 14.910269737
440 1 0.0 14.266734123 11.096348763 12.070218086
441 1 0.0 14.618999481 13.914469719 20.590373993
442 1 0.0 14.618999481 13.914469719 17.750322342
443 1 0.0 14.618999481 13.914469719 14.910269737
444 1 0.0 14.618999481 13.914469719 12.070218086
445 1 0.0 14.971264839 16.732591629 20.590373993
446 1 0.0 14.971264839 16.732591629 17.750322342
447 1 0.0 14.971264839 16.732591629 14.910269737
448 1 0.0 14.971264839 16.732591629 12.070218086
449 1 0.0 15.323529243 19.550710678 20.590373993
450 1 0.0 15.323529243 19.550710678 17.750322342
451 1 0.0 15.323529243 19.550710678 14.910269737
452 1 0.0 15.323529243 19.550710678 12.070218086
453 1 0.0 15.675794601 22.368829727 20.590373993
454 1 0.0 15.675794601 22.368829727 17.750322342
455 1 0.0 15.675794601 22.368829727 14.910269737
456 1 0.0 15.675794601 22.368829727 12.070218086
457 1 0.0 16.028059006 2.289722681 20.590373993
458 1 0.0 16.028059006 2.289722681 17.750322342
459 1 0.0 16.028059006 2.289722681 14.910269737
460 1 0.0 16.028059006 2.289722681 12.070218086
461 1 0.0 16.380325317 5.107842922 20.590373993
462 1 0.0 16.380325317 5.107842922 17.750322342
463 1 0.0 16.380325317 5.107842922 14.910269737
464 1 0.0 16.380325317 5.107842922 12.070218086
465 1 0.0 16.732591629 7.925962925 20.590373993
466 1 0.0 16.732591629 7.925962925 17.750322342
467 1 0.0 16.732591629 7.925962925 14.910269737
468 1 0.0 16.732591629 7.925962925 12.070218086
469 1 0.0 17.084854126 10.744083405 20.590373993
470 1 0.0 17.084854126 10.744083405 17.750322342
471 1 0.0 17.084854126 10.744083405 14.910269737
472 1 0.0 17.084854126 10.744083405 12.070218086
473 1 0.0 17.437120438 13.562204361 20.590373993
474 1 0.0 17.437120438 13.562204361 17.750322342
475 1 0.0 17.437120438 13.562204361 14.910269737
476 1 0.0 17.437120438 13.562204361 12.070218086
477 1 0.0 17.789386749 16.380325317 20.590373993
478 1 0.0 17.789386749 16.380325317 17.750322342
479 1 0.0 17.789386749 16.380325317 14.910269737
480 1 0.0 17.789386749 16.380325317 12.070218086
481 1 0.0 18.141649246 19.198444366 20.590373993
482 1 0.0 18.141649246 19.198444366 17.750322342
483 1 0.0 18.141649246 19.198444366 14.910269737
484 1 0.0 18.141649246 19.198444366 12.070218086
485 1 0.0 18.493915558 22.01656723 20.590373993
486 1 0.0 18.493915558 22.01656723 17.750322342
487 1 0.0 18.493915558 22.01656723 14.910269737
488 1 0.0 18.493915558 22.01656723 12.070218086
489 1 0.0 18.84618187 1.937457681 20.590373993
490 1 0.0 18.84618187 1.937457681 17.750322342
491 1 0.0 18.84618187 1.937457681 14.910269737
492 1 0.0 18.84618187 1.937457681 12.070218086
493 1 0.0 19.198444366 4.755577564 20.590373993
494 1 0.0 19.198444366 4.755577564 17.750322342
495 1 0.0 19.198444366 4.755577564 14.910269737
496 1 0.0 19.198444366 4.755577564 12.070218086
497 1 0.0 19.550710678 7.573698044 20.590373993
498 1 0.0 19.550710678 7.573698044 17.750322342
499 1 0.0 19.550710678 7.573698044 14.910269737
500 1 0.0 19.550710678 7.573698044 12.070218086
501 1 0.0 19.90297699 10.391818047 20.590373993
502 1 0.0 19.90297699 10.391818047 17.750322342
503 1 0.0 19.90297699 10.391818047 14.910269737
504 1 0.0 19.90297699 10.391818047 12.070218086
505 1 0.0 20.255239487 13.209939003 20.590373993
506 1 0.0 20.255239487 13.209939003 17.750322342
507 1 0.0 20.255239487 13.209939003 14.910269737
508 1 0.0 20.255239487 13.209939003 12.070218086
509 1 0.0 20.607505798 16.028059006 20.590373993
510 1 0.0 20.607505798 16.028059006 17.750322342
511 1 0.0 20.607505798 16.028059006 14.910269737
512 1 0.0 20.607505798 16.028059006 12.070218086
513 1 0.0 20.95977211 18.84618187 20.590373993
514 1 0.0 20.95977211 18.84618187 17.750322342
515 1 0.0 20.95977211 18.84618187 14.910269737
516 1 0.0 20.95977211 18.84618187 12.070218086
517 1 0.0 21.312034607 21.664299011 20.590373993
518 1 0.0 21.312034607 21.664299011 17.750322342
519 1 0.0 21.312034607 21.664299011 14.910269737
520 1 0.0 21.312034607 21.664299011 12.070218086
521 2 0.0 22.876981735 22.876981735 0.710012853
522 2 0.0 22.876981735 22.876981735 3.550064325
523 2 0.0 22.876981735 22.876981735 6.390115738
524 2 0.0 22.876981735 22.876981735 9.230166435
525 2 0.0 22.876981735 2.908212423 0.710012853
526 2 0.0 22.876981735 2.908212423 3.550064325
527 2 0.0 22.876981735 2.908212423 6.390115738
528 2 0.0 22.876981735 2.908212423 9.230166435
529 2 0.0 22.876981735 5.748263836 0.710012853
530 2 0.0 22.876981735 5.748263836 3.550064325
531 2 0.0 22.876981735 5.748263836 6.390115738
532 2 0.0 22.876981735 5.748263836 9.230166435
533 2 0.0 22.876981735 8.58831501 0.710012853
534 2 0.0 22.876981735 8.58831501 3.550064325
535 2 0.0 22.876981735 8.58831501 6.390115738
536 2 0.0 22.876981735 8.58831501 9.230166435
537 2 0.0 22.876981735 11.428366661 0.710012853
538 2 0.0 22.876981735 11.428366661 3.550064325
539 2 0.0 22.876981735 11.428366661 6.390115738
540 2 0.0 22.876981735 11.428366661 9.230166435
541 2 0.0 22.876981735 14.268418312 0.710012853
542 2 0.0 22.876981735 14.268418312 3.550064325
543 2 0.0 22.876981735 14.268418312 6.390115738
544 2 0.0 22.876981735 14.268418312 9.230166435
545 2 0.0 22.876981735 17.108469009 0.710012853
546 2 0.0 22.876981735 17.108469009 3.550064325
547 2 0.0 22.876981735 17.108469009 6.390115738
548 2 0.0 22.876981735 17.108469009 9.230166435
549 2 0.0 22.876981735 19.948522568 0.710012853
550 2 0.0 22.876981735 19.948522568 3.550064325
551 2 0.0 22.876981735 19.948522568 6.390115738
552 2 0.0 22.876981735 19.948522568 9.230166435
553 2 0.0 2.908212423 22.876981735 0.710012853
554 2 0.0 2.908212423 22.876981735 3.550064325
555 2 0.0 2.908212423 22.876981735 6.390115738
556 2 0.0 2.908212423 22.876981735 9.230166435
557 2 0.0 2.908212423 2.908212423 0.710012853
558 2 0.0 2.908212423 2.908212423 3.550064325
559 2 0.0 2.908212423 2.908212423 6.390115738
560 2 0.0 2.908212423 2.908212423 9.230166435
561 2 0.0 2.908212423 5.748263836 0.710012853
562 2 0.0 2.908212423 5.748263836 3.550064325
563 2 0.0 2.908212423 5.748263836 6.390115738
564 2 0.0 2.908212423 5.748263836 9.230166435
565 2 0.0 2.908212423 8.58831501 0.710012853
566 2 0.0 2.908212423 8.58831501 3.550064325
567 2 0.0 2.908212423 8.58831501 6.390115738
568 2 0.0 2.908212423 8.58831501 9.230166435
569 2 0.0 2.908212423 11.428366661 0.710012853
570 2 0.0 2.908212423 11.428366661 3.550064325
571 2 0.0 2.908212423 11.428366661 6.390115738
572 2 0.0 2.908212423 11.428366661 9.230166435
573 2 0.0 2.908212423 14.268418312 0.710012853
574 2 0.0 2.908212423 14.268418312 3.550064325
575 2 0.0 2.908212423 14.268418312 6.390115738
576 2 0.0 2.908212423 14.268418312 9.230166435
577 2 0.0 2.908212423 17.108469009 0.710012853
578 2 0.0 2.908212423 17.108469009 3.550064325
579 2 0.0 2.908212423 17.108469009 6.390115738
580 2 0.0 2.908212423 17.108469009 9.230166435
581 2 0.0 2.908212423 19.948522568 0.710012853
582 2 0.0 2.908212423 19.948522568 3.550064325
583 2 0.0 2.908212423 19.948522568 6.390115738
584 2 0.0 2.908212423 19.948522568 9.230166435
585 2 0.0 5.748263836 22.876981735 0.710012853
586 2 0.0 5.748263836 22.876981735 3.550064325
587 2 0.0 5.748263836 22.876981735 6.390115738
588 2 0.0 5.748263836 22.876981735 9.230166435
589 2 0.0 5.748263836 2.908212423 0.710012853
590 2 0.0 5.748263836 2.908212423 3.550064325
591 2 0.0 5.748263836 2.908212423 6.390115738
592 2 0.0 5.748263836 2.908212423 9.230166435
593 2 0.0 5.748263836 5.748263836 0.710012853
594 2 0.0 5.748263836 5.748263836 3.550064325
595 2 0.0 5.748263836 5.748263836 6.390115738
596 2 0.0 5.748263836 5.748263836 9.230166435
597 2 0.0 5.748263836 8.58831501 0.710012853
598 2 0.0 5.748263836 8.58831501 3.550064325
599 2 0.0 5.748263836 8.58831501 6.390115738
600 2 0.0 5.748263836 8.58831501 9.230166435
601 2 0.0 5.748263836 11.428366661 0.710012853
602 2 0.0 5.748263836 11.428366661 3.550064325
603 2 0.0 5.748263836 11.428366661 6.390115738
604 2 0.0 5.748263836 11.428366661 9.230166435
605 2 0.0 5.748263836 14.268418312 0.710012853
606 2 0.0 5.748263836 14.268418312 3.550064325
607 2 0.0 5.748263836 14.268418312 6.390115738
608 2 0.0 5.748263836 14.268418312 9.230166435
609 2 0.0 5.748263836 17.108469009 0.710012853
610 2 0.0 5.748263836 17.108469009 3.550064325
611 2 0.0 5.748263836 17.108469009 6.390115738
612 2 0.0 5.748263836 17.108469009 9.230166435
613 2 0.0 5.748263836 19.948522568 0.710012853
614 2 0.0 5.748263836 19.948522568 3.550064325