#Generated by cif2cell 1.2.39

360 atoms
3 atom types

0.0 24.070000 xlo xhi
0.0 24.070000 ylo yhi
0.0 24.070000 zlo zhi

Atoms

1 1 0.0   17.766067000000000  14.461256000000001  21.229740000000000
2 1 0.0    2.840260000000000   5.731066999999999  21.643744000000002
3 1 0.0    3.177240000000003  15.626244000000000  11.748567000000000
4 1 0.0   21.229740000000000  17.766067000000000  14.461256000000001
5 1 0.0   21.643744000000002   2.840260000000000   5.731066999999999
6 1 0.0    3.591244000000000   0.286433000000001  20.892759999999999
7 1 0.0   14.461256000000001  21.229740000000000  17.766067000000000
8 1 0.0    5.731066999999999  21.643744000000002   2.840260000000000
9 1 0.0   15.626244000000000  11.748567000000000   3.177240000000003
10 1 0.0  6.303933000000001   2.426256000000000  14.875260000000001
11 1 0.0 20.478756000000001  12.321433000000001  15.212240000000003
12 1 0.0 20.892759999999999   3.591244000000000   0.286433000000001
13 1 0.0 12.321433000000001  15.212240000000003  20.478756000000001
14 1 0.0 15.212240000000003  20.478756000000001  12.321433000000001
15 1 0.0  8.443756000000000  23.783567000000001   8.857760000000001
16 1 0.0 18.338933000000001   9.608744000000000   9.194740000000003
17 1 0.0  9.608744000000000   9.194740000000003  18.338933000000001
18 1 0.0 14.875260000000001   6.303933000000001   2.426256000000000
19 1 0.0  2.426256000000000  14.875260000000001   6.303933000000001
20 1 0.0 23.783567000000001   8.857760000000001   8.443756000000000
21 1 0.0  8.857760000000001   8.443756000000000  23.783567000000001
22 1 0.0 11.748567000000000   3.177240000000003  15.626244000000000
23 1 0.0  0.286433000000001  20.892759999999999   3.591244000000000
24 1 0.0  9.194740000000003  18.338933000000001   9.608744000000000
25 1 0.0 18.940683000000000  14.636967000000000  20.420988000000001
26 1 0.0  3.649011999999999   6.905683000000004  21.468033000000002
27 1 0.0  2.368488000000001  15.450533000000000  12.923183000000003
28 1 0.0 20.420988000000001  18.940683000000000  14.636967000000000
29 1 0.0 21.468033000000002   3.649011999999999   6.905683000000004
30 1 0.0  3.415533000000001  23.181816999999999  21.701511999999997
31 1 0.0 14.636967000000000  20.420988000000001  18.940683000000000
32 1 0.0  6.905683000000004  21.468033000000002   3.649011999999999
33 1 0.0 15.450533000000000  12.923183000000003   2.368488000000001
34 1 0.0  5.129316999999999   2.601966999999997  15.684011999999999
35 1 0.0 20.654467000000000  11.146816999999999  14.403488000000001
36 1 0.0 21.701511999999997   3.415533000000001  23.181816999999999
37 1 0.0 11.146816999999999  14.403488000000001  20.654467000000000
38 1 0.0 14.403488000000001  20.654467000000000  11.146816999999999
39 1 0.0  8.619466999999997   0.888183000000004   9.666511999999999
40 1 0.0 17.164317000000000   9.433033000000000   8.385988000000001
41 1 0.0  9.433033000000000   8.385988000000001  17.164317000000000
42 1 0.0 15.684011999999999   5.129316999999999   2.601966999999997
43 1 0.0  2.601966999999997  15.684011999999999   5.129316999999999
44 1 0.0  0.888183000000004   9.666511999999999   8.619466999999997
45 1 0.0  9.666511999999999   8.619466999999997   0.888183000000004
46 1 0.0 12.923183000000003   2.368488000000001  15.450533000000000
47 1 0.0 23.181816999999999  21.701511999999997   3.415533000000001
48 1 0.0  8.385988000000001  17.164317000000000   9.433033000000000
49 1 0.0 15.558847999999999  15.383137000000000  22.141993000000003
50 1 0.0  1.928006999999999   3.523847999999997  20.721862999999999
51 1 0.0  4.089493000000004  14.704363000000001   9.541347999999997
52 1 0.0 22.141993000000003  15.558847999999999  15.383137000000000
53 1 0.0 20.721862999999999   1.928006999999999   3.523847999999997
54 1 0.0  2.669363000000000   2.493652000000000  19.980506999999999
55 1 0.0 15.383137000000000  22.141993000000003  15.558847999999999
56 1 0.0  3.523847999999997  20.721862999999999   1.928006999999999
57 1 0.0 14.704363000000001   9.541347999999997   4.089493000000004
58 1 0.0  8.511152000000001   3.348137000000000  13.963006999999999
59 1 0.0 21.400637000000000  14.528652000000001  16.124493000000005
60 1 0.0 19.980506999999999   2.669363000000000   2.493652000000000
61 1 0.0 14.528652000000001  16.124493000000005  21.400637000000000
62 1 0.0 16.124493000000005  21.400637000000000  14.528652000000001
63 1 0.0  9.365637000000000  21.576347999999999   7.945506999999999
64 1 0.0 20.546151999999999   8.686863000000001  10.106993000000005
65 1 0.0  8.686863000000001  10.106993000000005  20.546151999999999
66 1 0.0 13.963006999999999   8.511152000000001   3.348137000000000
67 1 0.0  3.348137000000000  13.963006999999999   8.511152000000001
68 1 0.0 21.576347999999999   7.945506999999999   9.365637000000000
69 1 0.0  7.945506999999999   9.365637000000000  21.576347999999999
70 1 0.0  9.541347999999997   4.089493000000004  14.704363000000001
71 1 0.0  2.493652000000000  19.980506999999999   2.669363000000000
72 1 0.0 10.106993000000005  20.546151999999999   8.686863000000001
73 1 0.0 19.217487999999999  19.980506999999999  17.985104000000000
74 1 0.0  6.084896000000001   7.182488000000000  16.124493000000001
75 1 0.0 24.002603999999998  10.106993000000001  13.199987999999999
76 1 0.0 17.985104000000000  19.217487999999999  19.980506999999999
77 1 0.0 16.124493000000001   6.084896000000001   7.182488000000000
78 1 0.0 22.141993000000003  22.905011999999999   0.067396000000001
79 1 0.0 19.980506999999999  17.985104000000000  19.217487999999999
80 1 0.0  7.182488000000000  16.124493000000001   6.084896000000001
81 1 0.0 10.106993000000001  13.199987999999999  24.002603999999998
82 1 0.0  4.852512000000000   7.945506999999997  18.119896000000001
83 1 0.0  1.928006999999996  10.870012000000001  11.967603999999996
84 1 0.0  0.067396000000001  22.141993000000003  22.905011999999999
85 1 0.0 10.870012000000001  11.967603999999996   1.928006999999996
86 1 0.0 11.967603999999996   1.928006999999996  10.870012000000001
87 1 0.0 13.963006999999996   1.164988000000000  12.102396000000001
88 1 0.0 16.887512000000001   4.089493000000001   5.950103999999997
89 1 0.0  4.089493000000001   5.950103999999997  16.887512000000001
90 1 0.0 18.119896000000001   4.852512000000000   7.945506999999997
91 1 0.0  7.945506999999997  18.119896000000001   4.852512000000000
92 1 0.0  1.164988000000000  12.102396000000001  13.963006999999996
93 1 0.0 12.102396000000001  13.963006999999996   1.164988000000000
94 1 0.0 13.199987999999999  24.002603999999998  10.106993000000001
95 1 0.0 22.905011999999999   0.067396000000001  22.141993000000003
96 1 0.0  5.950103999999997  16.887512000000001   4.089493000000001
97 1 0.0 18.456876000000001  16.945280000000000  20.563001000000000
98 1 0.0  3.506999000000001   6.421875999999998  19.159720000000000
99 1 0.0  2.510500999999996  13.142220000000002  12.439375999999998
100 1 0.0 20.563001000000000  18.456876000000001  16.945280000000000
101 1 0.0 19.159720000000000   3.506999000000001   6.421875999999998
102 1 0.0  1.107220000000001  23.665624000000001  21.559499000000002
103 1 0.0 16.945280000000000  20.563001000000000  18.456876000000001
104 1 0.0  6.421875999999998  19.159720000000000   3.506999000000001
105 1 0.0 13.142220000000002  12.439375999999998   2.510500999999996
106 1 0.0  5.613123999999999   4.910279999999999  15.541999000000001
107 1 0.0 22.962779999999999  11.630623999999999  14.545500999999996
108 1 0.0 21.559499000000002   1.107220000000001  23.665624000000001
109 1 0.0 11.630623999999999  14.545500999999996  22.962779999999999
110 1 0.0 14.545500999999996  22.962779999999999  11.630623999999999
111 1 0.0 10.927779999999998   0.404375999999998   9.524499000000000
112 1 0.0 17.648123999999999   7.124720000000001   8.528000999999996
113 1 0.0  7.124720000000001   8.528000999999996  17.648123999999999
114 1 0.0 15.541999000000001   5.613123999999999   4.910279999999999
115 1 0.0  4.910279999999999  15.541999000000001   5.613123999999999
116 1 0.0  0.404375999999998   9.524499000000000  10.927779999999998
117 1 0.0  9.524499000000000  10.927779999999998   0.404375999999998
118 1 0.0 12.439375999999998   2.510500999999996  13.142220000000002
119 1 0.0 23.665624000000001  21.559499000000002   1.107220000000001
120 1 0.0  8.528000999999996  17.648123999999999   7.124720000000001
121 1 0.0 16.548124999999999  19.020114000000000  20.189916000000000
122 1 0.0  3.880084000000000   4.513125000000000  17.084886000000001
123 1 0.0  2.137416000000000  11.067385999999999  10.530625000000001
124 1 0.0 20.189916000000000  16.548124999999999  19.020114000000000
125 1 0.0 17.084886000000001   3.880084000000000   4.513125000000000
126 1 0.0 23.102385999999999   1.504375000000000  21.932584000000002
127 1 0.0 19.020114000000000  20.189916000000000  16.548124999999999
128 1 0.0  4.513125000000000  17.084886000000001   3.880084000000000
129 1 0.0 11.067385999999999  10.530625000000001   2.137416000000000
130 1 0.0  7.521875000000000   6.985114000000000  15.915084000000000
131 1 0.0  0.967614000000000  13.539375000000000  14.172416000000000
132 1 0.0 21.932584000000002  23.102385999999999   1.504375000000000
133 1 0.0 13.539375000000000  14.172416000000000   0.967614000000000
134 1 0.0 14.172416000000000   0.967614000000000  13.539375000000000
135 1 0.0 13.002614000000001  22.565625000000001   9.897584000000000
136 1 0.0 19.556875000000002   5.049886000000000   8.154916000000000
137 1 0.0  5.049886000000000   8.154916000000000  19.556875000000002
138 1 0.0 15.915084000000000   7.521875000000000   6.985114000000000
139 1 0.0  6.985114000000000  15.915084000000000   7.521875000000000
140 1 0.0 22.565625000000001   9.897584000000000  13.002614000000001
141 1 0.0  9.897584000000000  13.002614000000001  22.565625000000001
142 1 0.0 10.530625000000001   2.137416000000000  11.067385999999999
143 1 0.0  1.504375000000000  21.932584000000002  23.102385999999999
144 1 0.0  8.154916000000000  19.556875000000002   5.049886000000000
145 1 0.0 23.225142999999999  21.990351999999998  23.908731000000000
146 1 0.0  0.161269000000001  11.190143000000003  14.114648000000001
147 1 0.0  5.856231000000002   8.097148000000001  17.207643000000001
148 1 0.0 23.908731000000000  23.225142999999999  21.990351999999998
149 1 0.0 14.114648000000001   0.161269000000001  11.190143000000003
150 1 0.0 20.132148000000001  18.897357000000000  18.213769000000003
151 1 0.0 21.990351999999998  23.908731000000000  23.225142999999999
152 1 0.0 11.190143000000003  14.114648000000001   0.161269000000001
153 1 0.0  8.097148000000001  17.207643000000001   5.856231000000002
154 1 0.0  0.844857000000001   9.955352000000000  12.196269000000001
155 1 0.0  3.937851999999999   6.862357000000000  17.891231000000001
156 1 0.0 18.213769000000003  20.132148000000001  18.897357000000000
157 1 0.0  6.862357000000000  17.891231000000001   3.937851999999999
158 1 0.0 17.891231000000001   3.937851999999999   6.862357000000000
159 1 0.0 15.972852000000000   5.172643000000003   6.178769000000001
160 1 0.0 12.879857000000001   2.079648000000001  11.873731000000001
161 1 0.0  2.079648000000001  11.873731000000001  12.879857000000001
162 1 0.0 12.196269000000001   0.844857000000001   9.955352000000000
163 1 0.0  9.955352000000000  12.196269000000001   0.844857000000001
164 1 0.0  5.172643000000003   6.178769000000001  15.972852000000000
165 1 0.0  6.178769000000001  15.972852000000000   5.172643000000003
166 1 0.0 17.207643000000001   5.856231000000002   8.097148000000001
167 1 0.0 18.897357000000000  18.213769000000003  20.132148000000001
168 1 0.0 11.873731000000001  12.879857000000001   2.079648000000001
169 1 0.0 17.166723999999999  16.791232000000001  21.008296000000001
170 1 0.0  3.061704000000000   5.131724000000001  19.313768000000000
171 1 0.0  2.955796000000000  13.296268000000000  11.149224000000002
172 1 0.0 21.008296000000001  17.166723999999999  16.791232000000001
173 1 0.0 19.313768000000000   3.061704000000000   5.131724000000001
174 1 0.0  1.261268000000000   0.885776000000001  21.114204000000001
175 1 0.0 16.791232000000001  21.008296000000001  17.166723999999999
176 1 0.0  5.131724000000001  19.313768000000000   3.061704000000000
177 1 0.0 13.296268000000000  11.149224000000002   2.955796000000000
178 1 0.0  6.903276000000002   4.756232000000000  15.096703999999999
179 1 0.0 22.808731999999999  12.920776000000002  14.990796000000001
180 1 0.0 21.114204000000001   1.261268000000000   0.885776000000001
181 1 0.0 12.920776000000002  14.990796000000001  22.808731999999999
182 1 0.0 14.990796000000001  22.808731999999999  12.920776000000002
183 1 0.0 10.773732000000001  23.184224000000000   9.079203999999999
184 1 0.0 18.938276000000002   7.278768000000000   8.973296000000001
185 1 0.0  7.278768000000000   8.973296000000001  18.938276000000002
186 1 0.0 15.096703999999999   6.903276000000002   4.756232000000000
187 1 0.0  4.756232000000000  15.096703999999999   6.903276000000002
188 1 0.0 23.184224000000000   9.079203999999999  10.773732000000001
189 1 0.0  9.079203999999999  10.773732000000001  23.184224000000000
190 1 0.0 11.149224000000002   2.955796000000000  13.296268000000000
191 1 0.0  0.885776000000001  21.114204000000001   1.261268000000000
192 1 0.0  8.973296000000001  18.938276000000002   7.278768000000000
193 1 0.0 16.163004999999998  17.814207000000000  20.729084000000000
194 1 0.0  3.340916000000001   4.128005000000000  18.290793000000001
195 1 0.0  2.676583999999999  12.273293000000001  10.145505000000000
196 1 0.0 20.729084000000000  16.163004999999998  17.814207000000000
197 1 0.0 18.290793000000001   3.340916000000001   4.128005000000000
198 1 0.0  0.238293000000000   1.889495000000000  21.393416000000002
199 1 0.0 17.814207000000000  20.729084000000000  16.163004999999998
200 1 0.0  4.128005000000000  18.290793000000001   3.340916000000001
201 1 0.0 12.273293000000001  10.145505000000000   2.676583999999999
202 1 0.0  7.906995000000000   5.779207000000000  15.375916000000000
203 1 0.0 23.831707000000002  13.924495000000000  14.711584000000000
204 1 0.0 21.393416000000002   0.238293000000000   1.889495000000000
205 1 0.0 13.924495000000000  14.711584000000000  23.831707000000002
206 1 0.0 14.711584000000000  23.831707000000002  13.924495000000000
207 1 0.0 11.796707000000000  22.180505000000000   9.358416000000000
208 1 0.0 19.941995000000002   6.255793000000001   8.694084000000000
209 1 0.0  6.255793000000001   8.694084000000000  19.941995000000002
210 1 0.0 15.375916000000000   7.906995000000000   5.779207000000000
211 1 0.0  5.779207000000000  15.375916000000000   7.906995000000000
212 1 0.0 22.180505000000000   9.358416000000000  11.796707000000000
213 1 0.0  9.358416000000000  11.796707000000000  22.180505000000000
214 1 0.0 10.145505000000000   2.676583999999999  12.273293000000001
215 1 0.0  1.889495000000000  21.393416000000002   0.238293000000000
216 1 0.0  8.694084000000000  19.941995000000002   6.255793000000001
217 1 0.0 19.299326000000001  15.891014000000000  20.033461000000003
218 1 0.0  4.036538999999999   7.264326000000001  20.213985999999998
219 1 0.0  1.980961000000001  14.196486000000000  13.281826000000002
220 1 0.0 20.033461000000003  19.299326000000001  15.891014000000000
221 1 0.0 20.213985999999998   4.036538999999999   7.264326000000001
222 1 0.0  2.161486000000000  22.823174000000002  22.089039000000000
223 1 0.0 15.891014000000000  20.033461000000003  19.299326000000001
224 1 0.0  7.264326000000001  20.213985999999998   4.036538999999999
225 1 0.0 14.196486000000000  13.281826000000002   1.980961000000001
226 1 0.0  4.770674000000001   3.856014000000003  16.071538999999998
227 1 0.0 21.908514000000000  10.788174000000001  14.015961000000001
228 1 0.0 22.089039000000000   2.161486000000000  22.823174000000002
229 1 0.0 10.788174000000001  14.015961000000001  21.908514000000000
230 1 0.0 14.015961000000001  21.908514000000000  10.788174000000001
231 1 0.0  9.873514000000004   1.246826000000002  10.054039000000000
232 1 0.0 16.805674000000000   8.178986000000000   7.998461000000001
233 1 0.0  8.178986000000000   7.998461000000001  16.805674000000000
234 1 0.0 16.071538999999998   4.770674000000001   3.856014000000003
235 1 0.0  3.856014000000003  16.071538999999998   4.770674000000001
236 1 0.0  1.246826000000002  10.054039000000000   9.873514000000004
237 1 0.0 10.054039000000000   9.873514000000004   1.246826000000002
238 1 0.0 13.281826000000002   1.980961000000001  14.196486000000000
239 1 0.0 22.823174000000002  22.089039000000000   2.161486000000000
240 1 0.0  7.998461000000001  16.805674000000000   8.178986000000000
241 1 0.0 14.793422000000001  17.303923000000001  20.813329000000000
242 1 0.0  3.256670999999999   2.758422000000001  18.801076999999999
243 1 0.0  2.760829000000001  12.783577000000001   8.775922000000001
244 1 0.0 20.813329000000000  14.793422000000001  17.303923000000001
245 1 0.0 18.801076999999999   3.256670999999999   2.758422000000001
246 1 0.0  0.748577000000000   3.259077999999999  21.309170999999999
247 1 0.0 17.303923000000001  20.813329000000000  14.793422000000001
248 1 0.0  2.758422000000001  18.801076999999999   3.256670999999999
249 1 0.0 12.783577000000001   8.775922000000001   2.760829000000001
250 1 0.0  9.276577999999999   5.268923000000003  15.291670999999999
251 1 0.0 23.321422999999999  15.294077999999999  14.795829000000001
252 1 0.0 21.309170999999999   0.748577000000000   3.259077999999999
253 1 0.0 15.294077999999999  14.795829000000001  23.321422999999999
254 1 0.0 14.795829000000001  23.321422999999999  15.294077999999999
255 1 0.0 11.286423000000003  20.810922000000001   9.274170999999999
256 1 0.0 21.311578000000001   6.766077000000000   8.778329000000001
257 1 0.0  6.766077000000000   8.778329000000001  21.311578000000001
258 1 0.0 15.291670999999999   9.276577999999999   5.268923000000003
259 1 0.0  5.268923000000003  15.291670999999999   9.276577999999999
260 1 0.0 20.810922000000001   9.274170999999999  11.286423000000003
261 1 0.0  9.274170999999999  11.286423000000003  20.810922000000001
262 1 0.0  8.775922000000001   2.760829000000001  12.783577000000001
263 1 0.0  3.259077999999999  21.309170999999999   0.748577000000000
264 1 0.0  8.778329000000001  21.311578000000001   6.766077000000000
265 1 0.0 16.880291000000000  15.477010000000000  21.487289000000001
266 1 0.0  2.582710999999999   4.845291000000000  20.627990000000000
267 1 0.0  3.434789000000001  14.610490000000000  10.862791000000001
268 1 0.0 21.487289000000001  16.880291000000000  15.477010000000000
269 1 0.0 20.627990000000000   2.582710999999999   4.845291000000000
270 1 0.0  2.575490000000000   1.172208999999999  20.635210999999998
271 1 0.0 15.477010000000000  21.487289000000001  16.880291000000000
272 1 0.0  4.845291000000000  20.627990000000000   2.582710999999999
273 1 0.0 14.610490000000000  10.862791000000001   3.434789000000001
274 1 0.0  7.189709000000000   3.442010000000000  14.617710999999998
275 1 0.0 21.494510000000002  13.207208999999999  15.469789000000002
276 1 0.0 20.635210999999998   2.575490000000000   1.172208999999999
277 1 0.0 13.207208999999999  15.469789000000002  21.494510000000002
278 1 0.0 15.469789000000002  21.494510000000002  13.207208999999999
279 1 0.0  9.459510000000000  22.897791000000002   8.600210999999998
280 1 0.0 19.224709000000001   8.592990000000000   9.452289000000002
281 1 0.0  8.592990000000000   9.452289000000002  19.224709000000001
282 1 0.0 14.617710999999998   7.189709000000000   3.442010000000000
283 1 0.0  3.442010000000000  14.617710999999998   7.189709000000000
284 1 0.0 22.897791000000002   8.600210999999998   9.459510000000000
285 1 0.0  8.600210999999998   9.459510000000000  22.897791000000002
286 1 0.0 10.862791000000001   3.434789000000001  14.610490000000000
287 1 0.0  1.172208999999999  20.635210999999998   2.575490000000000
288 1 0.0  9.452289000000002  19.224709000000001   8.592990000000000
289 2 0.0 13.450315999999999  21.598011000000000  17.551843999999999
290 2 0.0  6.518156000000001   1.415315999999999  14.506989000000001
291 2 0.0 23.569344000000001   8.489489000000001   7.432815999999999
292 2 0.0 17.551843999999999  13.450315999999999  21.598011000000000
293 2 0.0 14.506989000000001   6.518156000000001   1.415315999999999
294 2 0.0 20.524488999999999   4.602184000000001   0.500656000000001
295 2 0.0 21.598011000000000  17.551843999999999  13.450315999999999
296 2 0.0  1.415315999999999  14.506989000000001   6.518156000000001
297 2 0.0  8.489489000000001   7.432815999999999  23.569344000000001
298 2 0.0 10.619684000000001   9.563010999999999  18.553156000000001
299 2 0.0  3.545511000000000  16.637184000000001  11.534344000000003
300 2 0.0  0.500656000000001  20.524488999999999   4.602184000000001
301 2 0.0 16.637184000000001  11.534344000000003   3.545511000000000
302 2 0.0 11.534344000000003   3.545511000000000  16.637184000000001
303 2 0.0 15.580511000000000  19.467815999999999  12.535656000000001
304 2 0.0 22.654684000000000   2.471989000000000   5.516844000000002
305 2 0.0  2.471989000000000   5.516844000000002  22.654684000000000
306 2 0.0 18.553156000000001  10.619684000000001   9.563010999999999
307 2 0.0  9.563010999999999  18.553156000000001  10.619684000000001
308 2 0.0 19.467815999999999  12.535656000000001  15.580511000000000
309 2 0.0 12.535656000000001  15.580511000000000  19.467815999999999
310 2 0.0  7.432815999999999  23.569344000000001   8.489489000000001
311 2 0.0  4.602184000000001   0.500656000000001  20.524488999999999
312 2 0.0  5.516844000000002  22.654684000000000   2.471989000000000
313 2 0.0 13.748784000000001  20.127334000000001  19.499107000000002
314 2 0.0  4.570892999999999   1.713784000000004  15.977665999999999
315 2 0.0  1.446607000000001   9.960165999999999   7.731284000000004
316 2 0.0 19.499107000000002  13.748784000000001  20.127334000000001
317 2 0.0 15.977665999999999   4.570892999999999   1.713784000000004
318 2 0.0 21.995165999999998   4.303715999999999  22.623393000000000
319 2 0.0 20.127334000000001  19.499107000000002  13.748784000000001
320 2 0.0  1.713784000000004  15.977665999999999   4.570892999999999
321 2 0.0  9.960165999999999   7.731284000000004   1.446607000000001
322 2 0.0 10.321216000000000   8.092334000000001  16.605892999999998
323 2 0.0  2.074834000000001  16.338715999999998  13.481607000000000
324 2 0.0 22.623393000000000  21.995165999999998   4.303715999999999
325 2 0.0 16.338715999999998  13.481607000000000   2.074834000000001
326 2 0.0 13.481607000000000   2.074834000000001  16.338715999999998
327 2 0.0 14.109834000000001  19.766284000000002  10.588393000000000
328 2 0.0 22.356216000000000   3.942665999999999   7.464107000000001
329 2 0.0  3.942665999999999   7.464107000000001  22.356216000000000
330 2 0.0 16.605892999999998  10.321216000000000   8.092334000000001
331 2 0.0  8.092334000000001  16.605892999999998  10.321216000000000
332 2 0.0 19.766284000000002  10.588393000000000  14.109834000000001
333 2 0.0 10.588393000000000  14.109834000000001  19.766284000000002
334 2 0.0  7.731284000000004   1.446607000000001   9.960165999999999
335 2 0.0  4.303715999999999  22.623393000000000  21.995165999999998
336 2 0.0  7.464107000000001  22.356216000000000   3.942665999999999
337 2 0.0 14.003926000000000  17.898452000000002  20.336742999999998
338 2 0.0  3.733257000000000   1.968925999999997  18.206547999999998
339 2 0.0  2.284243000000000  12.189048000000000   7.986425999999997
340 2 0.0 20.336742999999998  14.003926000000000  17.898452000000002
341 2 0.0 18.206547999999998   3.733257000000000   1.968925999999997
342 2 0.0  0.154047999999999   4.048574000000000  21.785757000000000
343 2 0.0 17.898452000000002  20.336742999999998  14.003926000000000
344 2 0.0  1.968925999999997  18.206547999999998   3.733257000000000
345 2 0.0 12.189048000000000   7.986425999999997   2.284243000000000
346 2 0.0 10.066074000000000   5.863452000000001  15.768257000000000
347 2 0.0 23.915952000000001  16.083574000000002  14.319243000000000
348 2 0.0 21.785757000000000   0.154047999999999   4.048574000000000
349 2 0.0 16.083574000000002  14.319243000000000  23.915952000000001
350 2 0.0 14.319243000000000  23.915952000000001  16.083574000000002
351 2 0.0 11.880952000000001  20.021425999999998   9.750757000000000
352 2 0.0 22.101074000000001   6.171547999999999   8.301743000000000
353 2 0.0  6.171547999999999   8.301743000000000  22.101074000000001
354 2 0.0 15.768257000000000  10.066074000000000   5.863452000000001
355 2 0.0  5.863452000000001  15.768257000000000  10.066074000000000
356 2 0.0 20.021425999999998   9.750757000000000  11.880952000000001
357 2 0.0  9.750757000000000  11.880952000000001  20.021425999999998
358 2 0.0  7.986425999999997   2.284243000000000  12.189048000000000
359 2 0.0  4.048574000000000  21.785757000000000   0.154047999999999
360 2 0.0  8.301743000000000  22.101074000000001   6.171547999999999
