# LAMMPS data file written by Ovito Basic 3.0.0-dev791
435 atoms
2 atom types
0.0 50.0 xlo xhi
0.0 50.0 ylo yhi
0.0 50.0 zlo zhi

Atoms  # charge

1 1 0.0 17.08587 21.04293 21.04293
2 1 0.0 17.08587 21.04293 25.0
3 1 0.0 17.08587 21.04293 28.95707
4 1 0.0 17.08587 25.0 21.04293
5 1 0.0 17.08587 25.0 25.0
6 1 0.0 17.08587 25.0 28.95707
7 1 0.0 17.08587 28.95707 21.04293
8 1 0.0 17.08587 28.95707 25.0
9 1 0.0 17.08587 28.95707 28.95707
10 1 0.0 21.04293 17.08587 21.04293
11 1 0.0 21.04293 17.08587 25.0
12 1 0.0 21.04293 17.08587 28.95707
13 1 0.0 21.04293 21.04293 17.08587
14 1 0.0 21.04293 21.04293 21.04293
15 1 0.0 21.04293 21.04293 25.0
16 1 0.0 21.04293 21.04293 28.95707
17 1 0.0 21.04293 21.04293 32.91413
18 1 0.0 21.04293 25.0 17.08587
19 1 0.0 21.04293 25.0 21.04293
20 1 0.0 21.04293 25.0 25.0
21 1 0.0 21.04293 25.0 28.95707
22 1 0.0 21.04293 25.0 32.91413
23 1 0.0 21.04293 28.95707 17.08587
24 1 0.0 21.04293 28.95707 21.04293
25 1 0.0 21.04293 28.95707 25.0
26 1 0.0 21.04293 28.95707 28.95707
27 1 0.0 21.04293 28.95707 32.91413
28 1 0.0 21.04293 32.91413 21.04293
29 1 0.0 21.04293 32.91413 25.0
30 1 0.0 21.04293 32.91413 28.95707
31 1 0.0 25.0 17.08587 21.04293
32 1 0.0 25.0 17.08587 25.0
33 1 0.0 25.0 17.08587 28.95707
34 1 0.0 25.0 21.04293 17.08587
35 1 0.0 25.0 21.04293 21.04293
36 1 0.0 25.0 21.04293 25.0
37 1 0.0 25.0 21.04293 28.95707
38 1 0.0 25.0 21.04293 32.91413
39 1 0.0 25.0 25.0 17.08587
40 1 0.0 25.0 25.0 21.04293
41 1 0.0 25.0 25.0 25.0
42 1 0.0 25.0 25.0 28.95707
43 1 0.0 25.0 25.0 32.91413
44 1 0.0 25.0 28.95707 17.08587
45 1 0.0 25.0 28.95707 21.04293
46 1 0.0 25.0 28.95707 25.0
47 1 0.0 25.0 28.95707 28.95707
48 1 0.0 25.0 28.95707 32.91413
49 1 0.0 25.0 32.91413 21.04293
50 1 0.0 25.0 32.91413 25.0
51 1 0.0 25.0 32.91413 28.95707
52 1 0.0 28.95707 17.08587 21.04293
53 1 0.0 28.95707 17.08587 25.0
54 1 0.0 28.95707 17.08587 28.95707
55 1 0.0 28.95707 21.04293 17.08587
56 1 0.0 28.95707 21.04293 21.04293
57 1 0.0 28.95707 21.04293 25.0
58 1 0.0 28.95707 21.04293 28.95707
59 1 0.0 28.95707 21.04293 32.91413
60 1 0.0 28.95707 25.0 17.08587
61 1 0.0 28.95707 25.0 21.04293
62 1 0.0 28.95707 25.0 25.0
63 1 0.0 28.95707 25.0 28.95707
64 1 0.0 28.95707 25.0 32.91413
65 1 0.0 28.95707 28.95707 17.08587
66 1 0.0 28.95707 28.95707 21.04293
67 1 0.0 28.95707 28.95707 25.0
68 1 0.0 28.95707 28.95707 28.95707
69 1 0.0 28.95707 28.95707 32.91413
70 1 0.0 28.95707 32.91413 21.04293
71 1 0.0 28.95707 32.91413 25.0
72 1 0.0 28.95707 32.91413 28.95707
73 1 0.0 32.91413 21.04293 21.04293
74 1 0.0 32.91413 21.04293 25.0
75 1 0.0 32.91413 21.04293 28.95707
76 1 0.0 32.91413 25.0 21.04293
77 1 0.0 32.91413 25.0 25.0
78 1 0.0 32.91413 25.0 28.95707
79 1 0.0 32.91413 28.95707 21.04293
80 1 0.0 32.91413 28.95707 25.0
81 1 0.0 32.91413 28.95707 28.95707
82 1 0.0 17.08587 23.02147 23.02147
83 1 0.0 17.08587 23.02147 26.97853
84 1 0.0 17.08587 26.97853 23.02147
85 1 0.0 17.08587 26.97853 26.97853
86 1 0.0 21.04293 19.0644 19.0644
87 1 0.0 21.04293 19.0644 23.02147
88 1 0.0 21.04293 19.0644 26.97853
89 1 0.0 21.04293 19.0644 30.9356
90 1 0.0 21.04293 23.02147 19.0644
91 1 0.0 21.04293 23.02147 23.02147
92 1 0.0 21.04293 23.02147 26.97853
93 1 0.0 21.04293 23.02147 30.9356
94 1 0.0 21.04293 26.97853 19.0644
95 1 0.0 21.04293 26.97853 23.02147
96 1 0.0 21.04293 26.97853 26.97853
97 1 0.0 21.04293 26.97853 30.9356
98 1 0.0 21.04293 30.9356 19.0644
99 1 0.0 21.04293 30.9356 23.02147
100 1 0.0 21.04293 30.9356 26.97853
101 1 0.0 21.04293 30.9356 30.9356
102 1 0.0 25.0 19.0644 19.0644
103 1 0.0 25.0 19.0644 23.02147
104 1 0.0 25.0 19.0644 26.97853
105 1 0.0 25.0 19.0644 30.9356
106 1 0.0 25.0 23.02147 19.0644
107 1 0.0 25.0 23.02147 23.02147
108 1 0.0 25.0 23.02147 26.97853
109 1 0.0 25.0 23.02147 30.9356
110 1 0.0 25.0 26.97853 19.0644
111 1 0.0 25.0 26.97853 23.02147
112 1 0.0 25.0 26.97853 26.97853
113 1 0.0 25.0 26.97853 30.9356
114 1 0.0 25.0 30.9356 19.0644
115 1 0.0 25.0 30.9356 23.02147
116 1 0.0 25.0 30.9356 26.97853
117 1 0.0 25.0 30.9356 30.9356
118 1 0.0 28.95707 19.0644 19.0644
119 1 0.0 28.95707 19.0644 23.02147
120 1 0.0 28.95707 19.0644 26.97853
121 1 0.0 28.95707 19.0644 30.9356
122 1 0.0 28.95707 23.02147 19.0644
123 1 0.0 28.95707 23.02147 23.02147
124 1 0.0 28.95707 23.02147 26.97853
125 1 0.0 28.95707 23.02147 30.9356
126 1 0.0 28.95707 26.97853 19.0644
127 1 0.0 28.95707 26.97853 23.02147
128 1 0.0 28.95707 26.97853 26.97853
129 1 0.0 28.95707 26.97853 30.9356
130 1 0.0 28.95707 30.9356 19.0644
131 1 0.0 28.95707 30.9356 23.02147
132 1 0.0 28.95707 30.9356 26.97853
133 1 0.0 28.95707 30.9356 30.9356
134 1 0.0 32.91413 23.02147 23.02147
135 1 0.0 32.91413 23.02147 26.97853
136 1 0.0 32.91413 26.97853 23.02147
137 1 0.0 32.91413 26.97853 26.97853
138 1 0.0 19.0644 21.04293 19.0644
139 1 0.0 19.0644 21.04293 23.02147
140 1 0.0 19.0644 21.04293 26.97853
141 1 0.0 19.0644 21.04293 30.9356
142 1 0.0 19.0644 25.0 19.0644
143 1 0.0 19.0644 25.0 23.02147
144 1 0.0 19.0644 25.0 26.97853
145 1 0.0 19.0644 25.0 30.9356
146 1 0.0 19.0644 28.95707 19.0644
147 1 0.0 19.0644 28.95707 23.02147
148 1 0.0 19.0644 28.95707 26.97853
149 1 0.0 19.0644 28.95707 30.9356
150 1 0.0 23.02147 17.08587 23.02147
151 1 0.0 23.02147 17.08587 26.97853
152 1 0.0 23.02147 21.04293 19.0644
153 1 0.0 23.02147 21.04293 23.02147
154 1 0.0 23.02147 21.04293 26.97853
155 1 0.0 23.02147 21.04293 30.9356
156 1 0.0 23.02147 25.0 19.0644
157 1 0.0 23.02147 25.0 23.02147
158 1 0.0 23.02147 25.0 26.97853
159 1 0.0 23.02147 25.0 30.9356
160 1 0.0 23.02147 28.95707 19.0644
161 1 0.0 23.02147 28.95707 23.02147
162 1 0.0 23.02147 28.95707 26.97853
163 1 0.0 23.02147 28.95707 30.9356
164 1 0.0 23.02147 32.91413 23.02147
165 1 0.0 23.02147 32.91413 26.97853
166 1 0.0 26.97853 17.08587 23.02147
167 1 0.0 26.97853 17.08587 26.97853
168 1 0.0 26.97853 21.04293 19.0644
169 1 0.0 26.97853 21.04293 23.02147
170 1 0.0 26.97853 21.04293 26.97853
171 1 0.0 26.97853 21.04293 30.9356
172 1 0.0 26.97853 25.0 19.0644
173 1 0.0 26.97853 25.0 23.02147
174 1 0.0 26.97853 25.0 26.97853
175 1 0.0 26.97853 25.0 30.9356
176 1 0.0 26.97853 28.95707 19.0644
177 1 0.0 26.97853 28.95707 23.02147
178 1 0.0 26.97853 28.95707 26.97853
179 1 0.0 26.97853 28.95707 30.9356
180 1 0.0 26.97853 32.91413 23.02147
181 1 0.0 26.97853 32.91413 26.97853
182 1 0.0 30.9356 21.04293 19.0644
183 1 0.0 30.9356 21.04293 23.02147
184 1 0.0 30.9356 21.04293 26.97853
185 1 0.0 30.9356 21.04293 30.9356
186 1 0.0 30.9356 25.0 19.0644
187 1 0.0 30.9356 25.0 23.02147
188 1 0.0 30.9356 25.0 26.97853
189 1 0.0 30.9356 25.0 30.9356
190 1 0.0 30.9356 28.95707 19.0644
191 1 0.0 30.9356 28.95707 23.02147
192 1 0.0 30.9356 28.95707 26.97853
193 1 0.0 30.9356 28.95707 30.9356
194 1 0.0 19.0644 19.0644 21.04293
195 1 0.0 19.0644 19.0644 25.0
196 1 0.0 19.0644 19.0644 28.95707
197 1 0.0 19.0644 23.02147 21.04293
198 1 0.0 19.0644 23.02147 25.0
199 1 0.0 19.0644 23.02147 28.95707
200 1 0.0 19.0644 26.97853 21.04293
201 1 0.0 19.0644 26.97853 25.0
202 1 0.0 19.0644 26.97853 28.95707
203 1 0.0 19.0644 30.9356 21.04293
204 1 0.0 19.0644 30.9356 25.0
205 1 0.0 19.0644 30.9356 28.95707
206 1 0.0 23.02147 19.0644 21.04293
207 1 0.0 23.02147 19.0644 25.0
208 1 0.0 23.02147 19.0644 28.95707
209 1 0.0 23.02147 23.02147 17.08587
210 1 0.0 23.02147 23.02147 21.04293
211 1 0.0 23.02147 23.02147 25.0
212 1 0.0 23.02147 23.02147 28.95707
213 1 0.0 23.02147 23.02147 32.91413
214 1 0.0 23.02147 26.97853 17.08587
215 1 0.0 23.02147 26.97853 21.04293
216 1 0.0 23.02147 26.97853 25.0
217 1 0.0 23.02147 26.97853 28.95707
218 1 0.0 23.02147 26.97853 32.91413
219 1 0.0 23.02147 30.9356 21.04293
220 1 0.0 23.02147 30.9356 25.0
221 1 0.0 23.02147 30.9356 28.95707
222 1 0.0 26.97853 19.0644 21.04293
223 1 0.0 26.97853 19.0644 25.0
224 1 0.0 26.97853 19.0644 28.95707
225 1 0.0 26.97853 23.02147 17.08587
226 1 0.0 26.97853 23.02147 21.04293
227 1 0.0 26.97853 23.02147 25.0
228 1 0.0 26.97853 23.02147 28.95707
229 1 0.0 26.97853 23.02147 32.91413
230 1 0.0 26.97853 26.97853 17.08587
231 1 0.0 26.97853 26.97853 21.04293
232 1 0.0 26.97853 26.97853 25.0
233 1 0.0 26.97853 26.97853 28.95707
234 1 0.0 26.97853 26.97853 32.91413
235 1 0.0 26.97853 30.9356 21.04293
236 1 0.0 26.97853 30.9356 25.0
237 1 0.0 26.97853 30.9356 28.95707
238 1 0.0 30.9356 19.0644 21.04293
239 1 0.0 30.9356 19.0644 25.0
240 1 0.0 30.9356 19.0644 28.95707
241 1 0.0 30.9356 23.02147 21.04293
242 1 0.0 30.9356 23.02147 25.0
243 1 0.0 30.9356 23.02147 28.95707
244 1 0.0 30.9356 26.97853 21.04293
245 1 0.0 30.9356 26.97853 25.0
246 1 0.0 30.9356 26.97853 28.95707
247 1 0.0 30.9356 30.9356 21.04293
248 1 0.0 30.9356 30.9356 25.0
249 1 0.0 30.9356 30.9356 28.95707
250 2 0.0 0.0 0.0 -0.32
251 2 0.0 0.0 0.0 0.32
252 2 0.0 0.0 0.0 9.68
253 2 0.0 0.0 0.0 10.32
254 2 0.0 0.0 0.0 19.68
255 2 0.0 0.0 0.0 20.32
256 2 0.0 0.0 0.0 29.68
257 2 0.0 0.0 0.0 30.32
258 2 0.0 0.0 0.0 39.68
259 2 0.0 0.0 0.0 40.32
260 2 0.0 0.0 10.0 -0.32
261 2 0.0 0.0 10.0 0.32
262 2 0.0 0.0 10.0 9.68
263 2 0.0 0.0 10.0 10.32
264 2 0.0 0.0 10.0 19.68
265 2 0.0 0.0 10.0 20.32
266 2 0.0 0.0 10.0 29.68
267 2 0.0 0.0 10.0 30.32
268 2 0.0 0.0 10.0 39.68
269 2 0.0 0.0 10.0 40.32
270 2 0.0 0.0 20.0 -0.32
271 2 0.0 0.0 20.0 0.32
272 2 0.0 0.0 20.0 9.68
273 2 0.0 0.0 20.0 10.32
274 2 0.0 0.0 20.0 19.68
275 2 0.0 0.0 20.0 20.32
276 2 0.0 0.0 20.0 29.68
277 2 0.0 0.0 20.0 30.32
278 2 0.0 0.0 20.0 39.68
279 2 0.0 0.0 20.0 40.32
280 2 0.0 0.0 30.0 -0.32
281 2 0.0 0.0 30.0 0.32
282 2 0.0 0.0 30.0 9.68
283 2 0.0 0.0 30.0 10.32
284 2 0.0 0.0 30.0 19.68
285 2 0.0 0.0 30.0 20.32
286 2 0.0 0.0 30.0 29.68
287 2 0.0 0.0 30.0 30.32
288 2 0.0 0.0 30.0 39.68
289 2 0.0 0.0 30.0 40.32
290 2 0.0 0.0 40.0 -0.32
291 2 0.0 0.0 40.0 0.32
292 2 0.0 0.0 40.0 9.68
293 2 0.0 0.0 40.0 10.32
294 2 0.0 0.0 40.0 19.68
295 2 0.0 0.0 40.0 20.32
296 2 0.0 0.0 40.0 29.68
297 2 0.0 0.0 40.0 30.32
298 2 0.0 0.0 40.0 39.68
299 2 0.0 0.0 40.0 40.32
300 2 0.0 10.0 0.0 -0.32
301 2 0.0 10.0 0.0 0.32
302 2 0.0 10.0 0.0 9.68
303 2 0.0 10.0 0.0 10.32
304 2 0.0 10.0 0.0 19.68
305 2 0.0 10.0 0.0 20.32
306 2 0.0 10.0 0.0 29.68
307 2 0.0 10.0 0.0 30.32
308 2 0.0 10.0 0.0 39.68
309 2 0.0 10.0 0.0 40.32
310 2 0.0 10.0 10.0 -0.32
311 2 0.0 10.0 10.0 0.32
312 2 0.0 10.0 10.0 9.68
313 2 0.0 10.0 10.0 10.32
314 2 0.0 10.0 10.0 19.68
315 2 0.0 10.0 10.0 20.32
316 2 0.0 10.0 10.0 29.68
317 2 0.0 10.0 10.0 30.32
318 2 0.0 10.0 10.0 39.68
319 2 0.0 10.0 10.0 40.32
320 2 0.0 10.0 20.0 -0.32
321 2 0.0 10.0 20.0 0.32
322 2 0.0 10.0 20.0 9.68
323 2 0.0 10.0 20.0 10.32
324 2 0.0 10.0 20.0 39.68
325 2 0.0 10.0 20.0 40.32
326 2 0.0 10.0 30.0 -0.32
327 2 0.0 10.0 30.0 0.32
328 2 0.0 10.0 30.0 9.68
329 2 0.0 10.0 30.0 10.32
330 2 0.0 10.0 30.0 39.68
331 2 0.0 10.0 30.0 40.32
332 2 0.0 10.0 40.0 -0.32
333 2 0.0 10.0 40.0 0.32
334 2 0.0 10.0 40.0 9.68
335 2 0.0 10.0 40.0 10.32
336 2 0.0 10.0 40.0 19.68
337 2 0.0 10.0 40.0 20.32
338 2 0.0 10.0 40.0 29.68
339 2 0.0 10.0 40.0 30.32
340 2 0.0 10.0 40.0 39.68
341 2 0.0 10.0 40.0 40.32
342 2 0.0 20.0 0.0 -0.32
343 2 0.0 20.0 0.0 0.32
344 2 0.0 20.0 0.0 9.68
345 2 0.0 20.0 0.0 10.32
346 2 0.0 20.0 0.0 19.68
347 2 0.0 20.0 0.0 20.32
348 2 0.0 20.0 0.0 29.68
349 2 0.0 20.0 0.0 30.32
350 2 0.0 20.0 0.0 39.68
351 2 0.0 20.0 0.0 40.32
352 2 0.0 20.0 10.0 -0.32
353 2 0.0 20.0 10.0 0.32
354 2 0.0 20.0 10.0 9.68
355 2 0.0 20.0 10.0 10.32
356 2 0.0 20.0 10.0 39.68
357 2 0.0 20.0 10.0 40.32
358 2 0.0 20.0 20.0 -0.32
359 2 0.0 20.0 20.0 0.32
360 2 0.0 20.0 30.0 -0.32
361 2 0.0 20.0 30.0 0.32
362 2 0.0 20.0 40.0 -0.32
363 2 0.0 20.0 40.0 0.32
364 2 0.0 20.0 40.0 9.68
365 2 0.0 20.0 40.0 10.32
366 2 0.0 20.0 40.0 39.68
367 2 0.0 20.0 40.0 40.32
368 2 0.0 30.0 0.0 -0.32
369 2 0.0 30.0 0.0 0.32
370 2 0.0 30.0 0.0 9.68
371 2 0.0 30.0 0.0 10.32
372 2 0.0 30.0 0.0 19.68
373 2 0.0 30.0 0.0 20.32
374 2 0.0 30.0 0.0 29.68
375 2 0.0 30.0 0.0 30.32
376 2 0.0 30.0 0.0 39.68
377 2 0.0 30.0 0.0 40.32
378 2 0.0 30.0 10.0 -0.32
379 2 0.0 30.0 10.0 0.32
380 2 0.0 30.0 10.0 9.68
381 2 0.0 30.0 10.0 10.32
382 2 0.0 30.0 10.0 39.68
383 2 0.0 30.0 10.0 40.32
384 2 0.0 30.0 20.0 -0.32
385 2 0.0 30.0 20.0 0.32
386 2 0.0 30.0 30.0 -0.32
387 2 0.0 30.0 30.0 0.32
388 2 0.0 30.0 40.0 -0.32
389 2 0.0 30.0 40.0 0.32
390 2 0.0 30.0 40.0 9.68
391 2 0.0 30.0 40.0 10.32
392 2 0.0 30.0 40.0 39.68
393 2 0.0 30.0 40.0 40.32
394 2 0.0 40.0 0.0 -0.32
395 2 0.0 40.0 0.0 0.32
396 2 0.0 40.0 0.0 9.68
397 2 0.0 40.0 0.0 10.32
398 2 0.0 40.0 0.0 19.68
399 2 0.0 40.0 0.0 20.32
400 2 0.0 40.0 0.0 29.68
401 2 0.0 40.0 0.0 30.32
402 2 0.0 40.0 0.0 39.68
403 2 0.0 40.0 0.0 40.32
404 2 0.0 40.0 10.0 -0.32
405 2 0.0 40.0 10.0 0.32
406 2 0.0 40.0 10.0 9.68
407 2 0.0 40.0 10.0 10.32
408 2 0.0 40.0 10.0 19.68
409 2 0.0 40.0 10.0 20.32
410 2 0.0 40.0 10.0 29.68
411 2 0.0 40.0 10.0 30.32
412 2 0.0 40.0 10.0 39.68
413 2 0.0 40.0 10.0 40.32
414 2 0.0 40.0 20.0 -0.32
415 2 0.0 40.0 20.0 0.32
416 2 0.0 40.0 20.0 9.68
417 2 0.0 40.0 20.0 10.32
418 2 0.0 40.0 20.0 39.68
419 2 0.0 40.0 20.0 40.32
420 2 0.0 40.0 30.0 -0.32
421 2 0.0 40.0 30.0 0.32
422 2 0.0 40.0 30.0 9.68
423 2 0.0 40.0 30.0 10.32
424 2 0.0 40.0 30.0 39.68
425 2 0.0 40.0 30.0 40.32
426 2 0.0 40.0 40.0 -0.32
427 2 0.0 40.0 40.0 0.32
428 2 0.0 40.0 40.0 9.68
429 2 0.0 40.0 40.0 10.32
430 2 0.0 40.0 40.0 19.68
431 2 0.0 40.0 40.0 20.32
432 2 0.0 40.0 40.0 29.68
433 2 0.0 40.0 40.0 30.32
434 2 0.0 40.0 40.0 39.68
435 2 0.0 40.0 40.0 40.32
