# LAMMPS data Li7P2S8I

7944 atoms
4392 bonds
6740 angles

12 atom types
1 bond types
5 angle types

0.0 28.2918 xlo xhi
0.0 31.278 ylo yhi
-45.68833333 101.274375 zlo zhi

Masses

1   6.941000 ##Li(anode)
2   6.941000 #Li(SE)
3   6.941000 #Li(cathode)
4  30.973761 #P(SE)
5  32.66     #S(SE)
6  126.90447 #I(SE)
7   58.9332  #Co(cathode)
8  15.9994   #O(cathode)
9  26.981539 #Al(cathode)
10 63.546    #Cu(cathode)
11  6.941000 #Li(cathode-temp)
12  6.941000 ##Li(anode-temp)

Bond Coeffs

1 39.895 1.98
 
Atoms # full

1 1 1 0 0 0 -32.0837
2 2 1 0 1.75465 1.75465 -30.32905
3 3 1 0 0 0 -28.5744
4 4 1 0 1.75465 1.75465 -26.81975
5 5 1 0 0 0 -25.0651
6 6 1 0 1.75465 1.75465 -23.31045
7 7 1 0 0 0 -21.5558
8 8 1 0 1.75465 1.75465 -19.80115
9 9 1 0 0 0 -18.0465
10 10 1 0 1.75465 1.75465 -16.29185
11 11 1 0 0 0 -14.5372
12 12 1 0 1.75465 1.75465 -12.78255
13 13 1 0 0 0 -11.0279
14 14 1 0 1.75465 1.75465 -9.27325
15 15 1 0 0 0 -7.5186
16 16 1 0 1.75465 1.75465 -5.76395
17 17 1 0 0 0 -4.0093
18 18 1 0 1.75465 1.75465 -2.25465
19 19 1 0 0 3.5093 -32.0837
20 20 1 0 1.75465 5.26395 -30.32905
21 21 1 0 0 3.5093 -28.5744
22 22 1 0 1.75465 5.26395 -26.81975
23 23 1 0 0 3.5093 -25.0651
24 24 1 0 1.75465 5.26395 -23.31045
25 25 1 0 0 3.5093 -21.5558
26 26 1 0 1.75465 5.26395 -19.80115
27 27 1 0 0 3.5093 -18.0465
28 28 1 0 1.75465 5.26395 -16.29185
29 29 1 0 0 3.5093 -14.5372
30 30 1 0 1.75465 5.26395 -12.78255
31 31 1 0 0 3.5093 -11.0279
32 32 1 0 1.75465 5.26395 -9.27325
33 33 1 0 0 3.5093 -7.5186
34 34 1 0 1.75465 5.26395 -5.76395
35 35 1 0 0 3.5093 -4.0093
36 36 1 0 1.75465 5.26395 -2.25465
37 37 1 0 0 7.0186 -32.0837
38 38 1 0 1.75465 8.77325 -30.32905
39 39 1 0 0 7.0186 -28.5744
40 40 1 0 1.75465 8.77325 -26.81975
41 41 1 0 0 7.0186 -25.0651
42 42 1 0 1.75465 8.77325 -23.31045
43 43 1 0 0 7.0186 -21.5558
44 44 1 0 1.75465 8.77325 -19.80115
45 45 1 0 0 7.0186 -18.0465
46 46 1 0 1.75465 8.77325 -16.29185
47 47 1 0 0 7.0186 -14.5372
48 48 1 0 1.75465 8.77325 -12.78255
49 49 1 0 0 7.0186 -11.0279
50 50 1 0 1.75465 8.77325 -9.27325
51 51 1 0 0 7.0186 -7.5186
52 52 1 0 1.75465 8.77325 -5.76395
53 53 1 0 0 7.0186 -4.0093
54 54 1 0 1.75465 8.77325 -2.25465
55 55 1 0 0 10.5279 -32.0837
56 56 1 0 1.75465 12.28255 -30.32905
57 57 1 0 0 10.5279 -28.5744
58 58 1 0 1.75465 12.28255 -26.81975
59 59 1 0 0 10.5279 -25.0651
60 60 1 0 1.75465 12.28255 -23.31045
61 61 1 0 0 10.5279 -21.5558
62 62 1 0 1.75465 12.28255 -19.80115
63 63 1 0 0 10.5279 -18.0465
64 64 1 0 1.75465 12.28255 -16.29185
65 65 1 0 0 10.5279 -14.5372
66 66 1 0 1.75465 12.28255 -12.78255
67 67 1 0 0 10.5279 -11.0279
68 68 1 0 1.75465 12.28255 -9.27325
69 69 1 0 0 10.5279 -7.5186
70 70 1 0 1.75465 12.28255 -5.76395
71 71 1 0 0 10.5279 -4.0093
72 72 1 0 1.75465 12.28255 -2.25465
73 73 1 0 0 14.0372 -32.0837
74 74 1 0 1.75465 15.79185 -30.32905
75 75 1 0 0 14.0372 -28.5744
76 76 1 0 1.75465 15.79185 -26.81975
77 77 1 0 0 14.0372 -25.0651
78 78 1 0 1.75465 15.79185 -23.31045
79 79 1 0 0 14.0372 -21.5558
80 80 1 0 1.75465 15.79185 -19.80115
81 81 1 0 0 14.0372 -18.0465
82 82 1 0 1.75465 15.79185 -16.29185
83 83 1 0 0 14.0372 -14.5372
84 84 1 0 1.75465 15.79185 -12.78255
85 85 1 0 0 14.0372 -11.0279
86 86 1 0 1.75465 15.79185 -9.27325
87 87 1 0 0 14.0372 -7.5186
88 88 1 0 1.75465 15.79185 -5.76395
89 89 1 0 0 14.0372 -4.0093
90 90 1 0 1.75465 15.79185 -2.25465
91 91 1 0 0 17.5465 -32.0837
92 92 1 0 1.75465 19.30115 -30.32905
93 93 1 0 0 17.5465 -28.5744
94 94 1 0 1.75465 19.30115 -26.81975
95 95 1 0 0 17.5465 -25.0651
96 96 1 0 1.75465 19.30115 -23.31045
97 97 1 0 0 17.5465 -21.5558
98 98 1 0 1.75465 19.30115 -19.80115
99 99 1 0 0 17.5465 -18.0465
100 100 1 0 1.75465 19.30115 -16.29185
101 101 1 0 0 17.5465 -14.5372
102 102 1 0 1.75465 19.30115 -12.78255
103 103 1 0 0 17.5465 -11.0279
104 104 1 0 1.75465 19.30115 -9.27325
105 105 1 0 0 17.5465 -7.5186
106 106 1 0 1.75465 19.30115 -5.76395
107 107 1 0 0 17.5465 -4.0093
108 108 1 0 1.75465 19.30115 -2.25465
109 109 1 0 0 21.0558 -32.0837
110 110 1 0 1.75465 22.81045 -30.32905
111 111 1 0 0 21.0558 -28.5744
112 112 1 0 1.75465 22.81045 -26.81975
113 113 1 0 0 21.0558 -25.0651
114 114 1 0 1.75465 22.81045 -23.31045
115 115 1 0 0 21.0558 -21.5558
116 116 1 0 1.75465 22.81045 -19.80115
117 117 1 0 0 21.0558 -18.0465
118 118 1 0 1.75465 22.81045 -16.29185
119 119 1 0 0 21.0558 -14.5372
120 120 1 0 1.75465 22.81045 -12.78255
121 121 1 0 0 21.0558 -11.0279
122 122 1 0 1.75465 22.81045 -9.27325
123 123 1 0 0 21.0558 -7.5186
124 124 1 0 1.75465 22.81045 -5.76395
125 125 1 0 0 21.0558 -4.0093
126 126 1 0 1.75465 22.81045 -2.25465
127 127 1 0 0 24.5651 -32.0837
128 128 1 0 1.75465 26.31975 -30.32905
129 129 1 0 0 24.5651 -28.5744
130 130 1 0 1.75465 26.31975 -26.81975
131 131 1 0 0 24.5651 -25.0651
132 132 1 0 1.75465 26.31975 -23.31045
133 133 1 0 0 24.5651 -21.5558
134 134 1 0 1.75465 26.31975 -19.80115
135 135 1 0 0 24.5651 -18.0465
136 136 1 0 1.75465 26.31975 -16.29185
137 137 1 0 0 24.5651 -14.5372
138 138 1 0 1.75465 26.31975 -12.78255
139 139 1 0 0 24.5651 -11.0279
140 140 1 0 1.75465 26.31975 -9.27325
141 141 1 0 0 24.5651 -7.5186
142 142 1 0 1.75465 26.31975 -5.76395
143 143 1 0 0 24.5651 -4.0093
144 144 1 0 1.75465 26.31975 -2.25465
145 145 1 0 0 28.0744 -32.0837
146 146 1 0 1.75465 29.82905 -30.32905
147 147 1 0 0 28.0744 -28.5744
148 148 1 0 1.75465 29.82905 -26.81975
149 149 1 0 0 28.0744 -25.0651
150 150 1 0 1.75465 29.82905 -23.31045
151 151 1 0 0 28.0744 -21.5558
152 152 1 0 1.75465 29.82905 -19.80115
153 153 1 0 0 28.0744 -18.0465
154 154 1 0 1.75465 29.82905 -16.29185
155 155 1 0 0 28.0744 -14.5372
156 156 1 0 1.75465 29.82905 -12.78255
157 157 1 0 0 28.0744 -11.0279
158 158 1 0 1.75465 29.82905 -9.27325
159 159 1 0 0 28.0744 -7.5186
160 160 1 0 1.75465 29.82905 -5.76395
161 161 1 0 0 28.0744 -4.0093
162 162 1 0 1.75465 29.82905 -2.25465
163 163 1 0 3.5093 0 -32.0837
164 164 1 0 5.26395 1.75465 -30.32905
165 165 1 0 3.5093 0 -28.5744
166 166 1 0 5.26395 1.75465 -26.81975
167 167 1 0 3.5093 0 -25.0651
168 168 1 0 5.26395 1.75465 -23.31045
169 169 1 0 3.5093 0 -21.5558
170 170 1 0 5.26395 1.75465 -19.80115
171 171 1 0 3.5093 0 -18.0465
172 172 1 0 5.26395 1.75465 -16.29185
173 173 1 0 3.5093 0 -14.5372
174 174 1 0 5.26395 1.75465 -12.78255
175 175 1 0 3.5093 0 -11.0279
176 176 1 0 5.26395 1.75465 -9.27325
177 177 1 0 3.5093 0 -7.5186
178 178 1 0 5.26395 1.75465 -5.76395
179 179 1 0 3.5093 0 -4.0093
180 180 1 0 5.26395 1.75465 -2.25465
181 181 1 0 3.5093 3.5093 -32.0837
182 182 1 0 5.26395 5.26395 -30.32905
183 183 1 0 3.5093 3.5093 -28.5744
184 184 1 0 5.26395 5.26395 -26.81975
185 185 1 0 3.5093 3.5093 -25.0651
186 186 1 0 5.26395 5.26395 -23.31045
187 187 1 0 3.5093 3.5093 -21.5558
188 188 1 0 5.26395 5.26395 -19.80115
189 189 1 0 3.5093 3.5093 -18.0465
190 190 1 0 5.26395 5.26395 -16.29185
191 191 1 0 3.5093 3.5093 -14.5372
192 192 1 0 5.26395 5.26395 -12.78255
193 193 1 0 3.5093 3.5093 -11.0279
194 194 1 0 5.26395 5.26395 -9.27325
195 195 1 0 3.5093 3.5093 -7.5186
196 196 1 0 5.26395 5.26395 -5.76395
197 197 1 0 3.5093 3.5093 -4.0093
198 198 1 0 5.26395 5.26395 -2.25465
199 199 1 0 3.5093 7.0186 -32.0837
200 200 1 0 5.26395 8.77325 -30.32905
201 201 1 0 3.5093 7.0186 -28.5744
202 202 1 0 5.26395 8.77325 -26.81975
203 203 1 0 3.5093 7.0186 -25.0651
204 204 1 0 5.26395 8.77325 -23.31045
205 205 1 0 3.5093 7.0186 -21.5558
206 206 1 0 5.26395 8.77325 -19.80115
207 207 1 0 3.5093 7.0186 -18.0465
208 208 1 0 5.26395 8.77325 -16.29185
209 209 1 0 3.5093 7.0186 -14.5372
210 210 1 0 5.26395 8.77325 -12.78255
211 211 1 0 3.5093 7.0186 -11.0279
212 212 1 0 5.26395 8.77325 -9.27325
213 213 1 0 3.5093 7.0186 -7.5186
214 214 1 0 5.26395 8.77325 -5.76395
215 215 1 0 3.5093 7.0186 -4.0093
216 216 1 0 5.26395 8.77325 -2.25465
217 217 1 0 3.5093 10.5279 -32.0837
218 218 1 0 5.26395 12.28255 -30.32905
219 219 1 0 3.5093 10.5279 -28.5744
220 220 1 0 5.26395 12.28255 -26.81975
221 221 1 0 3.5093 10.5279 -25.0651
222 222 1 0 5.26395 12.28255 -23.31045
223 223 1 0 3.5093 10.5279 -21.5558
224 224 1 0 5.26395 12.28255 -19.80115
225 225 1 0 3.5093 10.5279 -18.0465
226 226 1 0 5.26395 12.28255 -16.29185
227 227 1 0 3.5093 10.5279 -14.5372
228 228 1 0 5.26395 12.28255 -12.78255
229 229 1 0 3.5093 10.5279 -11.0279
230 230 1 0 5.26395 12.28255 -9.27325
231 231 1 0 3.5093 10.5279 -7.5186
232 232 1 0 5.26395 12.28255 -5.76395
233 233 1 0 3.5093 10.5279 -4.0093
234 234 1 0 5.26395 12.28255 -2.25465
235 235 1 0 3.5093 14.0372 -32.0837
236 236 1 0 5.26395 15.79185 -30.32905
237 237 1 0 3.5093 14.0372 -28.5744
238 238 1 0 5.26395 15.79185 -26.81975
239 239 1 0 3.5093 14.0372 -25.0651
240 240 1 0 5.26395 15.79185 -23.31045
241 241 1 0 3.5093 14.0372 -21.5558
242 242 1 0 5.26395 15.79185 -19.80115
243 243 1 0 3.5093 14.0372 -18.0465
244 244 1 0 5.26395 15.79185 -16.29185
245 245 1 0 3.5093 14.0372 -14.5372
246 246 1 0 5.26395 15.79185 -12.78255
247 247 1 0 3.5093 14.0372 -11.0279
248 248 1 0 5.26395 15.79185 -9.27325
249 249 1 0 3.5093 14.0372 -7.5186
250 250 1 0 5.26395 15.79185 -5.76395
251 251 1 0 3.5093 14.0372 -4.0093
252 252 1 0 5.26395 15.79185 -2.25465
253 253 1 0 3.5093 17.5465 -32.0837
254 254 1 0 5.26395 19.30115 -30.32905
255 255 1 0 3.5093 17.5465 -28.5744
256 256 1 0 5.26395 19.30115 -26.81975
257 257 1 0 3.5093 17.5465 -25.0651
258 258 1 0 5.26395 19.30115 -23.31045
259 259 1 0 3.5093 17.5465 -21.5558
260 260 1 0 5.26395 19.30115 -19.80115
261 261 1 0 3.5093 17.5465 -18.0465
262 262 1 0 5.26395 19.30115 -16.29185
263 263 1 0 3.5093 17.5465 -14.5372
264 264 1 0 5.26395 19.30115 -12.78255
265 265 1 0 3.5093 17.5465 -11.0279
266 266 1 0 5.26395 19.30115 -9.27325
267 267 1 0 3.5093 17.5465 -7.5186
268 268 1 0 5.26395 19.30115 -5.76395
269 269 1 0 3.5093 17.5465 -4.0093
270 270 1 0 5.26395 19.30115 -2.25465
271 271 1 0 3.5093 21.0558 -32.0837
272 272 1 0 5.26395 22.81045 -30.32905
273 273 1 0 3.5093 21.0558 -28.5744
274 274 1 0 5.26395 22.81045 -26.81975
275 275 1 0 3.5093 21.0558 -25.0651
276 276 1 0 5.26395 22.81045 -23.31045
277 277 1 0 3.5093 21.0558 -21.5558
278 278 1 0 5.26395 22.81045 -19.80115
279 279 1 0 3.5093 21.0558 -18.0465
280 280 1 0 5.26395 22.81045 -16.29185
281 281 1 0 3.5093 21.0558 -14.5372
282 282 1 0 5.26395 22.81045 -12.78255
283 283 1 0 3.5093 21.0558 -11.0279
284 284 1 0 5.26395 22.81045 -9.27325
285 285 1 0 3.5093 21.0558 -7.5186
286 286 1 0 5.26395 22.81045 -5.76395
287 287 1 0 3.5093 21.0558 -4.0093
288 288 1 0 5.26395 22.81045 -2.25465
289 289 1 0 3.5093 24.5651 -32.0837
290 290 1 0 5.26395 26.31975 -30.32905
291 291 1 0 3.5093 24.5651 -28.5744
292 292 1 0 5.26395 26.31975 -26.81975
293 293 1 0 3.5093 24.5651 -25.0651
294 294 1 0 5.26395 26.31975 -23.31045
295 295 1 0 3.5093 24.5651 -21.5558
296 296 1 0 5.26395 26.31975 -19.80115
297 297 1 0 3.5093 24.5651 -18.0465
298 298 1 0 5.26395 26.31975 -16.29185
299 299 1 0 3.5093 24.5651 -14.5372
300 300 1 0 5.26395 26.31975 -12.78255
301 301 1 0 3.5093 24.5651 -11.0279
302 302 1 0 5.26395 26.31975 -9.27325
303 303 1 0 3.5093 24.5651 -7.5186
304 304 1 0 5.26395 26.31975 -5.76395
305 305 1 0 3.5093 24.5651 -4.0093
306 306 1 0 5.26395 26.31975 -2.25465
307 307 1 0 3.5093 28.0744 -32.0837
308 308 1 0 5.26395 29.82905 -30.32905
309 309 1 0 3.5093 28.0744 -28.5744
310 310 1 0 5.26395 29.82905 -26.81975
311 311 1 0 3.5093 28.0744 -25.0651
312 312 1 0 5.26395 29.82905 -23.31045
313 313 1 0 3.5093 28.0744 -21.5558
314 314 1 0 5.26395 29.82905 -19.80115
315 315 1 0 3.5093 28.0744 -18.0465
316 316 1 0 5.26395 29.82905 -16.29185
317 317 1 0 3.5093 28.0744 -14.5372
318 318 1 0 5.26395 29.82905 -12.78255
319 319 1 0 3.5093 28.0744 -11.0279
320 320 1 0 5.26395 29.82905 -9.27325
321 321 1 0 3.5093 28.0744 -7.5186
322 322 1 0 5.26395 29.82905 -5.76395
323 323 1 0 3.5093 28.0744 -4.0093
324 324 1 0 5.26395 29.82905 -2.25465
325 325 1 0 7.0186 0 -32.0837
326 326 1 0 8.77325 1.75465 -30.32905
327 327 1 0 7.0186 0 -28.5744
328 328 1 0 8.77325 1.75465 -26.81975
329 329 1 0 7.0186 0 -25.0651
330 330 1 0 8.77325 1.75465 -23.31045
331 331 1 0 7.0186 0 -21.5558
332 332 1 0 8.77325 1.75465 -19.80115
333 333 1 0 7.0186 0 -18.0465
334 334 1 0 8.77325 1.75465 -16.29185
335 335 1 0 7.0186 0 -14.5372
336 336 1 0 8.77325 1.75465 -12.78255
337 337 1 0 7.0186 0 -11.0279
338 338 1 0 8.77325 1.75465 -9.27325
339 339 1 0 7.0186 0 -7.5186
340 340 1 0 8.77325 1.75465 -5.76395
341 341 1 0 7.0186 0 -4.0093
342 342 1 0 8.77325 1.75465 -2.25465
343 343 1 0 7.0186 3.5093 -32.0837
344 344 1 0 8.77325 5.26395 -30.32905
345 345 1 0 7.0186 3.5093 -28.5744
346 346 1 0 8.77325 5.26395 -26.81975
347 347 1 0 7.0186 3.5093 -25.0651
348 348 1 0 8.77325 5.26395 -23.31045
349 349 1 0 7.0186 3.5093 -21.5558
350 350 1 0 8.77325 5.26395 -19.80115
351 351 1 0 7.0186 3.5093 -18.0465
352 352 1 0 8.77325 5.26395 -16.29185
353 353 1 0 7.0186 3.5093 -14.5372
354 354 1 0 8.77325 5.26395 -12.78255
355 355 1 0 7.0186 3.5093 -11.0279
356 356 1 0 8.77325 5.26395 -9.27325
357 357 1 0 7.0186 3.5093 -7.5186
358 358 1 0 8.77325 5.26395 -5.76395
359 359 1 0 7.0186 3.5093 -4.0093
360 360 1 0 8.77325 5.26395 -2.25465
361 361 1 0 7.0186 7.0186 -32.0837
362 362 1 0 8.77325 8.77325 -30.32905
363 363 1 0 7.0186 7.0186 -28.5744
364 364 1 0 8.77325 8.77325 -26.81975
365 365 1 0 7.0186 7.0186 -25.0651
366 366 1 0 8.77325 8.77325 -23.31045
367 367 1 0 7.0186 7.0186 -21.5558
368 368 1 0 8.77325 8.77325 -19.80115
369 369 1 0 7.0186 7.0186 -18.0465
370 370 1 0 8.77325 8.77325 -16.29185
371 371 1 0 7.0186 7.0186 -14.5372
372 372 1 0 8.77325 8.77325 -12.78255
373 373 1 0 7.0186 7.0186 -11.0279
374 374 1 0 8.77325 8.77325 -9.27325
375 375 1 0 7.0186 7.0186 -7.5186
376 376 1 0 8.77325 8.77325 -5.76395
377 377 1 0 7.0186 7.0186 -4.0093
378 378 1 0 8.77325 8.77325 -2.25465
379 379 1 0 7.0186 10.5279 -32.0837
380 380 1 0 8.77325 12.28255 -30.32905
381 381 1 0 7.0186 10.5279 -28.5744
382 382 1 0 8.77325 12.28255 -26.81975
383 383 1 0 7.0186 10.5279 -25.0651
384 384 1 0 8.77325 12.28255 -23.31045
385 385 1 0 7.0186 10.5279 -21.5558
386 386 1 0 8.77325 12.28255 -19.80115
387 387 1 0 7.0186 10.5279 -18.0465
388 388 1 0 8.77325 12.28255 -16.29185
389 389 1 0 7.0186 10.5279 -14.5372
390 390 1 0 8.77325 12.28255 -12.78255
391 391 1 0 7.0186 10.5279 -11.0279
392 392 1 0 8.77325 12.28255 -9.27325
393 393 1 0 7.0186 10.5279 -7.5186
394 394 1 0 8.77325 12.28255 -5.76395
395 395 1 0 7.0186 10.5279 -4.0093
396 396 1 0 8.77325 12.28255 -2.25465
397 397 1 0 7.0186 14.0372 -32.0837
398 398 1 0 8.77325 15.79185 -30.32905
399 399 1 0 7.0186 14.0372 -28.5744
400 400 1 0 8.77325 15.79185 -26.81975
401 401 1 0 7.0186 14.0372 -25.0651
402 402 1 0 8.77325 15.79185 -23.31045
403 403 1 0 7.0186 14.0372 -21.5558
404 404 1 0 8.77325 15.79185 -19.80115
405 405 1 0 7.0186 14.0372 -18.0465
406 406 1 0 8.77325 15.79185 -16.29185
407 407 1 0 7.0186 14.0372 -14.5372
408 408 1 0 8.77325 15.79185 -12.78255
409 409 1 0 7.0186 14.0372 -11.0279
410 410 1 0 8.77325 15.79185 -9.27325
411 411 1 0 7.0186 14.0372 -7.5186
412 412 1 0 8.77325 15.79185 -5.76395
413 413 1 0 7.0186 14.0372 -4.0093
414 414 1 0 8.77325 15.79185 -2.25465
415 415 1 0 7.0186 17.5465 -32.0837
416 416 1 0 8.77325 19.30115 -30.32905
417 417 1 0 7.0186 17.5465 -28.5744
418 418 1 0 8.77325 19.30115 -26.81975
419 419 1 0 7.0186 17.5465 -25.0651
420 420 1 0 8.77325 19.30115 -23.31045
421 421 1 0 7.0186 17.5465 -21.5558
422 422 1 0 8.77325 19.30115 -19.80115
423 423 1 0 7.0186 17.5465 -18.0465
424 424 1 0 8.77325 19.30115 -16.29185
425 425 1 0 7.0186 17.5465 -14.5372
426 426 1 0 8.77325 19.30115 -12.78255
427 427 1 0 7.0186 17.5465 -11.0279
428 428 1 0 8.77325 19.30115 -9.27325
429 429 1 0 7.0186 17.5465 -7.5186
430 430 1 0 8.77325 19.30115 -5.76395
431 431 1 0 7.0186 17.5465 -4.0093
432 432 1 0 8.77325 19.30115 -2.25465
433 433 1 0 7.0186 21.0558 -32.0837
434 434 1 0 8.77325 22.81045 -30.32905
435 435 1 0 7.0186 21.0558 -28.5744
436 436 1 0 8.77325 22.81045 -26.81975
437 437 1 0 7.0186 21.0558 -25.0651
438 438 1 0 8.77325 22.81045 -23.31045
439 439 1 0 7.0186 21.0558 -21.5558
440 440 1 0 8.77325 22.81045 -19.80115
441 441 1 0 7.0186 21.0558 -18.0465
442 442 1 0 8.77325 22.81045 -16.29185
443 443 1 0 7.0186 21.0558 -14.5372
444 444 1 0 8.77325 22.81045 -12.78255
445 445 1 0 7.0186 21.0558 -11.0279
446 446 1 0 8.77325 22.81045 -9.27325
447 447 1 0 7.0186 21.0558 -7.5186
448 448 1 0 8.77325 22.81045 -5.76395
449 449 1 0 7.0186 21.0558 -4.0093
450 450 1 0 8.77325 22.81045 -2.25465
451 451 1 0 7.0186 24.5651 -32.0837
452 452 1 0 8.77325 26.31975 -30.32905
453 453 1 0 7.0186 24.5651 -28.5744
454 454 1 0 8.77325 26.31975 -26.81975
455 455 1 0 7.0186 24.5651 -25.0651
456 456 1 0 8.77325 26.31975 -23.31045
457 457 1 0 7.0186 24.5651 -21.5558
458 458 1 0 8.77325 26.31975 -19.80115
459 459 1 0 7.0186 24.5651 -18.0465
460 460 1 0 8.77325 26.31975 -16.29185
461 461 1 0 7.0186 24.5651 -14.5372
462 462 1 0 8.77325 26.31975 -12.78255
463 463 1 0 7.0186 24.5651 -11.0279
464 464 1 0 8.77325 26.31975 -9.27325
465 465 1 0 7.0186 24.5651 -7.5186
466 466 1 0 8.77325 26.31975 -5.76395
467 467 1 0 7.0186 24.5651 -4.0093
468 468 1 0 8.77325 26.31975 -2.25465
469 469 1 0 7.0186 28.0744 -32.0837
470 470 1 0 8.77325 29.82905 -30.32905
471 471 1 0 7.0186 28.0744 -28.5744
472 472 1 0 8.77325 29.82905 -26.81975
473 473 1 0 7.0186 28.0744 -25.0651
474 474 1 0 8.77325 29.82905 -23.31045
475 475 1 0 7.0186 28.0744 -21.5558
476 476 1 0 8.77325 29.82905 -19.80115
477 477 1 0 7.0186 28.0744 -18.0465
478 478 1 0 8.77325 29.82905 -16.29185
479 479 1 0 7.0186 28.0744 -14.5372
480 480 1 0 8.77325 29.82905 -12.78255
481 481 1 0 7.0186 28.0744 -11.0279
482 482 1 0 8.77325 29.82905 -9.27325
483 483 1 0 7.0186 28.0744 -7.5186
484 484 1 0 8.77325 29.82905 -5.76395
485 485 1 0 7.0186 28.0744 -4.0093
486 486 1 0 8.77325 29.82905 -2.25465
487 487 1 0 10.5279 0 -32.0837
488 488 1 0 12.28255 1.75465 -30.32905
489 489 1 0 10.5279 0 -28.5744
490 490 1 0 12.28255 1.75465 -26.81975
491 491 1 0 10.5279 0 -25.0651
492 492 1 0 12.28255 1.75465 -23.31045
493 493 1 0 10.5279 0 -21.5558
494 494 1 0 12.28255 1.75465 -19.80115
495 495 1 0 10.5279 0 -18.0465
496 496 1 0 12.28255 1.75465 -16.29185
497 497 1 0 10.5279 0 -14.5372
498 498 1 0 12.28255 1.75465 -12.78255
499 499 1 0 10.5279 0 -11.0279
500 500 1 0 12.28255 1.75465 -9.27325
501 501 1 0 10.5279 0 -7.5186
502 502 1 0 12.28255 1.75465 -5.76395
503 503 1 0 10.5279 0 -4.0093
504 504 1 0 12.28255 1.75465 -2.25465
505 505 1 0 10.5279 3.5093 -32.0837
506 506 1 0 12.28255 5.26395 -30.32905
507 507 1 0 10.5279 3.5093 -28.5744
508 508 1 0 12.28255 5.26395 -26.81975
509 509 1 0 10.5279 3.5093 -25.0651
510 510 1 0 12.28255 5.26395 -23.31045
511 511 1 0 10.5279 3.5093 -21.5558
512 512 1 0 12.28255 5.26395 -19.80115
513 513 1 0 10.5279 3.5093 -18.0465
514 514 1 0 12.28255 5.26395 -16.29185
515 515 1 0 10.5279 3.5093 -14.5372
516 516 1 0 12.28255 5.26395 -12.78255
517 517 1 0 10.5279 3.5093 -11.0279
518 518 1 0 12.28255 5.26395 -9.27325
519 519 1 0 10.5279 3.5093 -7.5186
520 520 1 0 12.28255 5.26395 -5.76395
521 521 1 0 10.5279 3.5093 -4.0093
522 522 1 0 12.28255 5.26395 -2.25465
523 523 1 0 10.5279 7.0186 -32.0837
524 524 1 0 12.28255 8.77325 -30.32905
525 525 1 0 10.5279 7.0186 -28.5744
526 526 1 0 12.28255 8.77325 -26.81975
527 527 1 0 10.5279 7.0186 -25.0651
528 528 1 0 12.28255 8.77325 -23.31045
529 529 1 0 10.5279 7.0186 -21.5558
530 530 1 0 12.28255 8.77325 -19.80115
531 531 1 0 10.5279 7.0186 -18.0465
532 532 1 0 12.28255 8.77325 -16.29185
533 533 1 0 10.5279 7.0186 -14.5372
534 534 1 0 12.28255 8.77325 -12.78255
535 535 1 0 10.5279 7.0186 -11.0279
536 536 1 0 12.28255 8.77325 -9.27325
537 537 1 0 10.5279 7.0186 -7.5186
538 538 1 0 12.28255 8.77325 -5.76395
539 539 1 0 10.5279 7.0186 -4.0093
540 540 1 0 12.28255 8.77325 -2.25465
541 541 1 0 10.5279 10.5279 -32.0837
542 542 1 0 12.28255 12.28255 -30.32905
543 543 1 0 10.5279 10.5279 -28.5744
544 544 1 0 12.28255 12.28255 -26.81975
545 545 1 0 10.5279 10.5279 -25.0651
546 546 1 0 12.28255 12.28255 -23.31045
547 547 1 0 10.5279 10.5279 -21.5558
548 548 1 0 12.28255 12.28255 -19.80115
549 549 1 0 10.5279 10.5279 -18.0465
550 550 1 0 12.28255 12.28255 -16.29185
551 551 1 0 10.5279 10.5279 -14.5372
552 552 1 0 12.28255 12.28255 -12.78255
553 553 1 0 10.5279 10.5279 -11.0279
554 554 1 0 12.28255 12.28255 -9.27325
555 555 1 0 10.5279 10.5279 -7.5186
556 556 1 0 12.28255 12.28255 -5.76395
557 557 1 0 10.5279 10.5279 -4.0093
558 558 1 0 12.28255 12.28255 -2.25465
559 559 1 0 10.5279 14.0372 -32.0837
560 560 1 0 12.28255 15.79185 -30.32905
561 561 1 0 10.5279 14.0372 -28.5744
562 562 1 0 12.28255 15.79185 -26.81975
563 563 1 0 10.5279 14.0372 -25.0651
564 564 1 0 12.28255 15.79185 -23.31045
565 565 1 0 10.5279 14.0372 -21.5558
566 566 1 0 12.28255 15.79185 -19.80115
567 567 1 0 10.5279 14.0372 -18.0465
568 568 1 0 12.28255 15.79185 -16.29185
569 569 1 0 10.5279 14.0372 -14.5372
570 570 1 0 12.28255 15.79185 -12.78255
571 571 1 0 10.5279 14.0372 -11.0279
572 572 1 0 12.28255 15.79185 -9.27325
573 573 1 0 10.5279 14.0372 -7.5186
574 574 1 0 12.28255 15.79185 -5.76395
575 575 1 0 10.5279 14.0372 -4.0093
576 576 1 0 12.28255 15.79185 -2.25465
577 577 1 0 10.5279 17.5465 -32.0837
578 578 1 0 12.28255 19.30115 -30.32905
579 579 1 0 10.5279 17.5465 -28.5744
580 580 1 0 12.28255 19.30115 -26.81975
581 581 1 0 10.5279 17.5465 -25.0651
582 582 1 0 12.28255 19.30115 -23.31045
583 583 1 0 10.5279 17.5465 -21.5558
584 584 1 0 12.28255 19.30115 -19.80115
585 585 1 0 10.5279 17.5465 -18.0465
586 586 1 0 12.28255 19.30115 -16.29185
587 587 1 0 10.5279 17.5465 -14.5372
588 588 1 0 12.28255 19.30115 -12.78255
589 589 1 0 10.5279 17.5465 -11.0279
590 590 1 0 12.28255 19.30115 -9.27325
591 591 1 0 10.5279 17.5465 -7.5186
592 592 1 0 12.28255 19.30115 -5.76395
593 593 1 0 10.5279 17.5465 -4.0093
594 594 1 0 12.28255 19.30115 -2.25465
595 595 1 0 10.5279 21.0558 -32.0837
596 596 1 0 12.28255 22.81045 -30.32905
597 597 1 0 10.5279 21.0558 -28.5744
598 598 1 0 12.28255 22.81045 -26.81975
599 599 1 0 10.5279 21.0558 -25.0651
600 600 1 0 12.28255 22.81045 -23.31045
601 601 1 0 10.5279 21.0558 -21.5558
602 602 1 0 12.28255 22.81045 -19.80115
603 603 1 0 10.5279 21.0558 -18.0465
604 604 1 0 12.28255 22.81045 -16.29185
605 605 1 0 10.5279 21.0558 -14.5372
606 606 1 0 12.28255 22.81045 -12.78255
607 607 1 0 10.5279 21.0558 -11.0279
608 608 1 0 12.28255 22.81045 -9.27325
609 609 1 0 10.5279 21.0558 -7.5186
610 610 1 0 12.28255 22.81045 -5.76395
611 611 1 0 10.5279 21.0558 -4.0093
612 612 1 0 12.28255 22.81045 -2.25465
613 613 1 0 10.5279 24.5651 -32.0837
614 614 1 0 12.28255 26.31975 -30.32905
615 615 1 0 10.5279 24.5651 -28.5744
616 616 1 0 12.28255 26.31975 -26.81975
617 617 1 0 10.5279 24.5651 -25.0651
618 618 1 0 12.28255 26.31975 -23.31045
619 619 1 0 10.5279 24.5651 -21.5558
620 620 1 0 12.28255 26.31975 -19.80115
621 621 1 0 10.5279 24.5651 -18.0465
622 622 1 0 12.28255 26.31975 -16.29185
623 623 1 0 10.5279 24.5651 -14.5372
624 624 1 0 12.28255 26.31975 -12.78255
625 625 1 0 10.5279 24.5651 -11.0279
626 626 1 0 12.28255 26.31975 -9.27325
627 627 1 0 10.5279 24.5651 -7.5186
628 628 1 0 12.28255 26.31975 -5.76395
629 629 1 0 10.5279 24.5651 -4.0093
630 630 1 0 12.28255 26.31975 -2.25465
631 631 1 0 10.5279 28.0744 -32.0837
632 632 1 0 12.28255 29.82905 -30.32905
633 633 1 0 10.5279 28.0744 -28.5744
634 634 1 0 12.28255 29.82905 -26.81975
635 635 1 0 10.5279 28.0744 -25.0651
636 636 1 0 12.28255 29.82905 -23.31045
637 637 1 0 10.5279 28.0744 -21.5558
638 638 1 0 12.28255 29.82905 -19.80115
639 639 1 0 10.5279 28.0744 -18.0465
640 640 1 0 12.28255 29.82905 -16.29185
641 641 1 0 10.5279 28.0744 -14.5372
642 642 1 0 12.28255 29.82905 -12.78255
643 643 1 0 10.5279 28.0744 -11.0279
644 644 1 0 12.28255 29.82905 -9.27325
645 645 1 0 10.5279 28.0744 -7.5186
646 646 1 0 12.28255 29.82905 -5.76395
647 647 1 0 10.5279 28.0744 -4.0093
648 648 1 0 12.28255 29.82905 -2.25465
649 649 1 0 14.0372 0 -32.0837
650 650 1 0 15.79185 1.75465 -30.32905
651 651 1 0 14.0372 0 -28.5744
652 652 1 0 15.79185 1.75465 -26.81975
653 653 1 0 14.0372 0 -25.0651
654 654 1 0 15.79185 1.75465 -23.31045
655 655 1 0 14.0372 0 -21.5558
656 656 1 0 15.79185 1.75465 -19.80115
657 657 1 0 14.0372 0 -18.0465
658 658 1 0 15.79185 1.75465 -16.29185
659 659 1 0 14.0372 0 -14.5372
660 660 1 0 15.79185 1.75465 -12.78255
661 661 1 0 14.0372 0 -11.0279
662 662 1 0 15.79185 1.75465 -9.27325
663 663 1 0 14.0372 0 -7.5186
664 664 1 0 15.79185 1.75465 -5.76395
665 665 1 0 14.0372 0 -4.0093
666 666 1 0 15.79185 1.75465 -2.25465
667 667 1 0 14.0372 3.5093 -32.0837
668 668 1 0 15.79185 5.26395 -30.32905
669 669 1 0 14.0372 3.5093 -28.5744
670 670 1 0 15.79185 5.26395 -26.81975
671 671 1 0 14.0372 3.5093 -25.0651
672 672 1 0 15.79185 5.26395 -23.31045
673 673 1 0 14.0372 3.5093 -21.5558
674 674 1 0 15.79185 5.26395 -19.80115
675 675 1 0 14.0372 3.5093 -18.0465
676 676 1 0 15.79185 5.26395 -16.29185
677 677 1 0 14.0372 3.5093 -14.5372
678 678 1 0 15.79185 5.26395 -12.78255
679 679 1 0 14.0372 3.5093 -11.0279
680 680 1 0 15.79185 5.26395 -9.27325
681 681 1 0 14.0372 3.5093 -7.5186
682 682 1 0 15.79185 5.26395 -5.76395
683 683 1 0 14.0372 3.5093 -4.0093
684 684 1 0 15.79185 5.26395 -2.25465
685 685 1 0 14.0372 7.0186 -32.0837
686 686 1 0 15.79185 8.77325 -30.32905
687 687 1 0 14.0372 7.0186 -28.5744
688 688 1 0 15.79185 8.77325 -26.81975
689 689 1 0 14.0372 7.0186 -25.0651
690 690 1 0 15.79185 8.77325 -23.31045
691 691 1 0 14.0372 7.0186 -21.5558
692 692 1 0 15.79185 8.77325 -19.80115
693 693 1 0 14.0372 7.0186 -18.0465
694 694 1 0 15.79185 8.77325 -16.29185
695 695 1 0 14.0372 7.0186 -14.5372
696 696 1 0 15.79185 8.77325 -12.78255
697 697 1 0 14.0372 7.0186 -11.0279
698 698 1 0 15.79185 8.77325 -9.27325
699 699 1 0 14.0372 7.0186 -7.5186
700 700 1 0 15.79185 8.77325 -5.76395
701 701 1 0 14.0372 7.0186 -4.0093
702 702 1 0 15.79185 8.77325 -2.25465
703 703 1 0 14.0372 10.5279 -32.0837
704 704 1 0 15.79185 12.28255 -30.32905
705 705 1 0 14.0372 10.5279 -28.5744
706 706 1 0 15.79185 12.28255 -26.81975
707 707 1 0 14.0372 10.5279 -25.0651
708 708 1 0 15.79185 12.28255 -23.31045
709 709 1 0 14.0372 10.5279 -21.5558
710 710 1 0 15.79185 12.28255 -19.80115
711 711 1 0 14.0372 10.5279 -18.0465
712 712 1 0 15.79185 12.28255 -16.29185
713 713 1 0 14.0372 10.5279 -14.5372
714 714 1 0 15.79185 12.28255 -12.78255
715 715 1 0 14.0372 10.5279 -11.0279
716 716 1 0 15.79185 12.28255 -9.27325
717 717 1 0 14.0372 10.5279 -7.5186
718 718 1 0 15.79185 12.28255 -5.76395
719 719 1 0 14.0372 10.5279 -4.0093
720 720 1 0 15.79185 12.28255 -2.25465
721 721 1 0 14.0372 14.0372 -32.0837
722 722 1 0 15.79185 15.79185 -30.32905
723 723 1 0 14.0372 14.0372 -28.5744
724 724 1 0 15.79185 15.79185 -26.81975
725 725 1 0 14.0372 14.0372 -25.0651
726 726 1 0 15.79185 15.79185 -23.31045
727 727 1 0 14.0372 14.0372 -21.5558
728 728 1 0 15.79185 15.79185 -19.80115
729 729 1 0 14.0372 14.0372 -18.0465
730 730 1 0 15.79185 15.79185 -16.29185
731 731 1 0 14.0372 14.0372 -14.5372
732 732 1 0 15.79185 15.79185 -12.78255
733 733 1 0 14.0372 14.0372 -11.0279
734 734 1 0 15.79185 15.79185 -9.27325
735 735 1 0 14.0372 14.0372 -7.5186
736 736 1 0 15.79185 15.79185 -5.76395
737 737 1 0 14.0372 14.0372 -4.0093
738 738 1 0 15.79185 15.79185 -2.25465
739 739 1 0 14.0372 17.5465 -32.0837
740 740 1 0 15.79185 19.30115 -30.32905
741 741 1 0 14.0372 17.5465 -28.5744
742 742 1 0 15.79185 19.30115 -26.81975
743 743 1 0 14.0372 17.5465 -25.0651
744 744 1 0 15.79185 19.30115 -23.31045
745 745 1 0 14.0372 17.5465 -21.5558
746 746 1 0 15.79185 19.30115 -19.80115
747 747 1 0 14.0372 17.5465 -18.0465
748 748 1 0 15.79185 19.30115 -16.29185
749 749 1 0 14.0372 17.5465 -14.5372
750 750 1 0 15.79185 19.30115 -12.78255
751 751 1 0 14.0372 17.5465 -11.0279
752 752 1 0 15.79185 19.30115 -9.27325
753 753 1 0 14.0372 17.5465 -7.5186
754 754 1 0 15.79185 19.30115 -5.76395
755 755 1 0 14.0372 17.5465 -4.0093
756 756 1 0 15.79185 19.30115 -2.25465
757 757 1 0 14.0372 21.0558 -32.0837
758 758 1 0 15.79185 22.81045 -30.32905
759 759 1 0 14.0372 21.0558 -28.5744
760 760 1 0 15.79185 22.81045 -26.81975
761 761 1 0 14.0372 21.0558 -25.0651
762 762 1 0 15.79185 22.81045 -23.31045
763 763 1 0 14.0372 21.0558 -21.5558
764 764 1 0 15.79185 22.81045 -19.80115
765 765 1 0 14.0372 21.0558 -18.0465
766 766 1 0 15.79185 22.81045 -16.29185
767 767 1 0 14.0372 21.0558 -14.5372
768 768 1 0 15.79185 22.81045 -12.78255
769 769 1 0 14.0372 21.0558 -11.0279
770 770 1 0 15.79185 22.81045 -9.27325
771 771 1 0 14.0372 21.0558 -7.5186
772 772 1 0 15.79185 22.81045 -5.76395
773 773 1 0 14.0372 21.0558 -4.0093
774 774 1 0 15.79185 22.81045 -2.25465
775 775 1 0 14.0372 24.5651 -32.0837
776 776 1 0 15.79185 26.31975 -30.32905
777 777 1 0 14.0372 24.5651 -28.5744
778 778 1 0 15.79185 26.31975 -26.81975
779 779 1 0 14.0372 24.5651 -25.0651
780 780 1 0 15.79185 26.31975 -23.31045
781 781 1 0 14.0372 24.5651 -21.5558
782 782 1 0 15.79185 26.31975 -19.80115
783 783 1 0 14.0372 24.5651 -18.0465
784 784 1 0 15.79185 26.31975 -16.29185
785 785 1 0 14.0372 24.5651 -14.5372
786 786 1 0 15.79185 26.31975 -12.78255
787 787 1 0 14.0372 24.5651 -11.0279
788 788 1 0 15.79185 26.31975 -9.27325
789 789 1 0 14.0372 24.5651 -7.5186
790 790 1 0 15.79185 26.31975 -5.76395
791 791 1 0 14.0372 24.5651 -4.0093
792 792 1 0 15.79185 26.31975 -2.25465
793 793 1 0 14.0372 28.0744 -32.0837
794 794 1 0 15.79185 29.82905 -30.32905
795 795 1 0 14.0372 28.0744 -28.5744
796 796 1 0 15.79185 29.82905 -26.81975
797 797 1 0 14.0372 28.0744 -25.0651
798 798 1 0 15.79185 29.82905 -23.31045
799 799 1 0 14.0372 28.0744 -21.5558
800 800 1 0 15.79185 29.82905 -19.80115
801 801 1 0 14.0372 28.0744 -18.0465
802 802 1 0 15.79185 29.82905 -16.29185
803 803 1 0 14.0372 28.0744 -14.5372
804 804 1 0 15.79185 29.82905 -12.78255
805 805 1 0 14.0372 28.0744 -11.0279
806 806 1 0 15.79185 29.82905 -9.27325
807 807 1 0 14.0372 28.0744 -7.5186
808 808 1 0 15.79185 29.82905 -5.76395
809 809 1 0 14.0372 28.0744 -4.0093
810 810 1 0 15.79185 29.82905 -2.25465
811 811 1 0 17.5465 0 -32.0837
812 812 1 0 19.30115 1.75465 -30.32905
813 813 1 0 17.5465 0 -28.5744