# LAMMPS data file written by Ovito Basic 3.0.0-dev791
224 atoms
4 atom types
0.0 31.8931007385 xlo xhi
0.0 15.6099004745 ylo yhi
0.0 7.90251916 zlo zhi

Atoms  # charge

1 1 0.0 22.669275284 11.854158401 1.088967085
2 1 0.0 9.938838005 3.755741835 6.81355238
3 1 0.0 25.885387421 11.854158401 6.81355238
4 1 0.0 6.722726345 3.755741835 1.088967085
5 1 0.0 7.080233097 4.049208164 5.04022646
6 1 0.0 25.527881622 11.560691833 2.862292528
7 1 0.0 9.581331253 4.049208164 2.862292528
8 1 0.0 23.02678299 11.560691833 5.04022646
9 2 0.0 23.37682724 11.52478981 2.9871521
10 2 0.0 9.231287956 4.085110664 4.91536665
11 2 0.0 25.177837372 11.52478981 4.91536665
12 2 0.0 7.430274487 4.085110664 2.9871521
13 2 0.0 7.787781239 3.719840527 6.938412189
14 2 0.0 24.820331573 11.890060425 0.964107394
15 2 0.0 8.873781204 3.719840527 0.964107394
16 2 0.0 23.734333038 11.890060425 6.938412189
17 2 0.0 23.037809372 13.988031387 0.720709741
18 2 0.0 9.570303917 1.621868849 7.181809425
19 2 0.0 25.51685524 13.988031387 7.181809425
20 2 0.0 7.091258049 1.621868849 0.720709741
21 2 0.0 7.448764801 6.183082104 4.671969414
22 2 0.0 25.159347534 9.426818848 3.230549812
23 2 0.0 9.212797165 6.183082104 3.230549812
24 2 0.0 23.395317078 9.426818848 4.671969414
25 2 0.0 23.083847046 9.701553345 0.771285832
26 2 0.0 9.52426815 5.90834713 7.131233692
27 2 0.0 25.470817566 9.701553345 7.131233692
28 2 0.0 7.137298107 5.90834713 0.771285832
29 2 0.0 7.494804859 1.896603107 4.722545147
30 2 0.0 25.113311768 13.71329689 3.179973841
31 2 0.0 9.166761398 1.896603107 3.179973841
32 2 0.0 23.441352844 13.71329689 4.722545147
33 2 0.0 21.096340179 12.444212914 4.430942535
34 2 0.0 11.511773109 3.165687323 3.471576691
35 2 0.0 27.458324432 12.444212914 3.471576691
36 2 0.0 5.149791718 3.165687323 4.430942535
37 2 0.0 4.792284966 4.639261723 0.479682446
38 2 0.0 27.815830231 10.970637321 7.422836304
39 2 0.0 11.869279861 4.639261723 7.422836304
40 2 0.0 20.738834381 10.970637321 0.479682446
41 2 0.0 21.089756012 12.918753624 2.207963705
42 2 0.0 11.518359184 2.691146851 5.694555283
43 2 0.0 27.4649086 12.918753624 5.694555283
44 2 0.0 5.143204212 2.691146851 2.207963705
45 2 0.0 5.500710964 5.113803387 6.159223557
46 2 0.0 27.107402802 10.496096611 1.743295789
47 2 0.0 11.160852432 5.113803387 1.743295789
48 2 0.0 21.44726181 10.496096611 6.159223557
49 3 0.0 22.078353882 0.613469064 1.11425519
50 3 0.0 10.529761314 14.996431351 6.788263798
51 3 0.0 26.47631073 0.613469064 6.788263798
52 3 0.0 6.131803036 14.996431351 1.11425519
53 3 0.0 6.489309788 8.418419838 5.065515041
54 3 0.0 26.118803024 7.191481113 2.837004423
55 3 0.0 10.172254562 8.418419838 2.837004423
56 3 0.0 22.435861588 7.191481113 5.065515041
57 3 0.0 22.052196503 3.075150251 1.107142925
58 3 0.0 10.555919647 12.534749985 6.795376301
59 3 0.0 26.502468109 3.075150251 6.795376301
60 3 0.0 6.105644703 12.534749985 1.107142925
61 3 0.0 6.463151455 10.880101204 5.058402538
62 3 0.0 26.144962311 4.729799747 2.844116688
63 3 0.0 10.198412895 10.880101204 2.844116688
64 3 0.0 22.409702301 4.729799747 5.058402538
65 3 0.0 22.089637756 7.463093281 1.133221269
66 3 0.0 10.518476486 8.146806717 6.769298077
67 3 0.0 26.465026855 7.463093281 6.769298077
68 3 0.0 6.143085003 8.146806717 1.133221269
69 3 0.0 6.500591755 15.268043518 5.084480762
70 3 0.0 26.107521057 0.341856778 2.818038225
71 3 0.0 10.160969734 15.268043518 2.818038225
72 3 0.0 22.447143555 0.341856778 5.084480762
73 3 0.0 22.067312241 5.00297308 1.133221269
74 3 0.0 10.540802002 10.606926918 6.769298077
75 3 0.0 26.487352371 5.00297308 6.769298077
76 3 0.0 6.120759487 10.606926918 1.133221269
77 3 0.0 6.478266239 12.807923317 5.084480762
78 3 0.0 26.129846573 2.801977396 2.818038225
79 3 0.0 10.18329525 12.807923317 2.818038225
80 3 0.0 22.424818039 2.801977396 5.084480762
81 3 0.0 16.780387878 15.012042046 1.707734466
82 3 0.0 15.827726364 0.597858846 6.194785118
83 3 0.0 31.774276733 15.012042046 6.194785118
84 3 0.0 0.833839953 0.597858846 1.707734466
85 3 0.0 1.191346645 7.207090378 5.658993721
86 3 0.0 31.416769028 8.402809143 2.243525267
87 3 0.0 15.470219612 7.207090378 2.243525267
88 3 0.0 17.137895584 8.402809143 5.658993721
89 3 0.0 18.906673431 13.781981468 1.450112343
90 3 0.0 13.701441765 1.827919364 6.452406883
91 3 0.0 29.64799118 13.781981468 6.452406883
92 3 0.0 2.960124969 1.827919364 1.450112343
93 3 0.0 3.317631721 5.977030754 5.401371956
94 3 0.0 29.290483475 9.63286972 2.501147509
95 3 0.0 13.343935013 5.977030754 2.501147509
96 3 0.0 19.264181137 9.63286972 5.401371956
97 3 0.0 17.482736588 15.266482353 5.980626583
98 3 0.0 15.125376701 0.343418032 1.921892762
99 3 0.0 31.071928024 15.266482353 1.921892762
100 3 0.0 1.536184788 0.343418032 5.980626583
101 3 0.0 1.178678036 7.461531162 2.029366493
102 3 0.0 31.42943573 8.148367882 5.873152256
103 3 0.0 15.482883453 7.461531162 5.873152256
104 3 0.0 17.125228882 8.148367882 2.029366493
105 3 0.0 19.568319321 13.983348846 5.696135521
106 3 0.0 13.039793968 1.626551747 2.206383467
107 3 0.0 28.986345291 13.983348846 2.206383467
108 3 0.0 3.621767998 1.626551747 5.696135521
109 3 0.0 3.264261246 6.178398609 1.744875669
110 3 0.0 29.343851089 9.431502342 6.157643318
111 3 0.0 13.39730072 6.178398609 6.157643318
112 3 0.0 19.210813522 9.431502342 1.744875669
113 4 0.0 22.885280609 1.169181585 0.621137977
114 4 0.0 9.72283268 14.440718651 7.28138113
115 4 0.0 25.669384003 1.169181585 7.28138113
116 4 0.0 6.938732624 14.440718651 0.621137977
117 4 0.0 7.296239376 8.974132538 4.572397709
118 4 0.0 25.311876297 6.63576889 3.330121756
119 4 0.0 9.365325928 8.974132538 3.330121756
120 4 0.0 23.242788315 6.63576889 4.572397709
121 4 0.0 22.884494781 2.55846262 0.612445235
122 4 0.0 9.723619461 13.051437378 7.290073872
123 4 0.0 25.67016983 2.55846262 7.290073872
124 4 0.0 6.93794632 13.051437378 0.612445235
125 4 0.0 7.295453072 10.363412857 4.563704967
126 4 0.0 25.312664032 5.246487141 3.338814497
127 4 0.0 9.366112709 10.363412857 3.338814497
128 4 0.0 23.24200058 5.246487141 4.563704967
129 4 0.0 22.89273262 6.907381058 0.632991791
130 4 0.0 9.715380669 8.702519417 7.269527435
131 4 0.0 25.661931992 6.907381058 7.269527435
132 4 0.0 6.946184635 8.702519417 0.632991791
133 4 0.0 7.303691387 14.712330818 4.584251404
134 4 0.0 25.304424286 0.897569358 3.318267822
135 4 0.0 9.357873917 14.712330818 3.318267822
136 4 0.0 23.250240326 0.897569358 4.584251404
137 4 0.0 22.892017365 5.518099785 0.625089228
138 4 0.0 9.716095924 10.09180069 7.277430058
139 4 0.0 25.662647247 5.518099785 7.277430058
140 4 0.0 6.945469856 10.09180069 0.625089228
141 4 0.0 7.302976608 13.323050499 4.576348782
142 4 0.0 25.305139542 2.286850214 3.326170206
143 4 0.0 9.358589172 13.323050499 3.326170206
144 4 0.0 23.24952507 2.286850214 4.576348782
145 4 0.0 17.38104248 14.807551384 2.600719213
146 4 0.0 15.227073669 0.802348971 5.301800251
147 4 0.0 31.173622131 14.807551384 5.301800251
148 4 0.0 1.434492826 0.802348971 2.600719213
149 4 0.0 1.791999578 7.0026021 6.551978588
150 4 0.0 30.816116333 8.607298851 1.3505404
151 4 0.0 14.869566917 7.0026021 1.3505404
152 4 0.0 17.738548279 8.607298851 6.551978588
153 4 0.0 18.57542038 14.114472389 2.441878319
154 4 0.0 14.032694817 1.495428205 5.46064043
155 4 0.0 29.979244232 14.114472389 5.46064043
156 4 0.0 2.62886858 1.495428205 2.441878319
157 4 0.0 2.986375332 6.309523106 6.393138409
158 4 0.0 29.621738434 9.300378799 1.509381294
159 4 0.0 13.675188065 6.309523106 1.509381294
160 4 0.0 18.932926178 9.300378799 6.393138409
161 4 0.0 16.940790176 15.239945412 3.868283033
162 4 0.0 15.667323112 0.369954616 4.034235954
163 4 0.0 31.613874435 15.239945412 4.034235954
164 4 0.0 0.994240165 0.369954616 3.868283033
165 4 0.0 1.351747036 7.434995651 7.819542885
166 4 0.0 31.25636673 8.174904823 0.082976565
167 4 0.0 15.30981636 7.434995651 0.082976565
168 4 0.0 17.298297882 8.174904823 7.819542885
169 4 0.0 17.767911911 14.941796303 4.973055363
170 4 0.0 14.840203285 0.668103874 2.929463863
171 4 0.0 30.786752701 14.941796303 2.929463863
172 4 0.0 1.821360707 0.668103874 4.973055363
173 4 0.0 1.463853955 7.136847496 1.02179575
174 4 0.0 31.144260406 8.473053932 6.880723476
175 4 0.0 15.197710037 7.136847496 6.880723476
176 4 0.0 17.410404205 8.473053932 1.02179575
177 4 0.0 19.365127563 13.803834915 3.556133509
178 4 0.0 13.242986679 1.806065559 4.346385479
179 4 0.0 29.189537048 13.803834915 4.346385479
180 4 0.0 3.418576717 1.806065559 3.556133509
181 4 0.0 3.776083469 5.998884678 7.50739336
182 4 0.0 28.83203125 9.611016273 0.395126045
183 4 0.0 12.885479927 5.998884678 0.395126045
184 4 0.0 19.722633362 9.611016273 7.50739336
185 4 0.0 18.947341919 14.225302696 4.825278282
186 4 0.0 13.66077137 1.384598136 3.077240944
187 4 0.0 29.607322693 14.225302696 3.077240944
188 4 0.0 3.000792265 1.384598136 4.825278282
189 4 0.0 2.643285513 6.420351028 0.87401861
190 4 0.0 29.964828491 9.189548492 7.028500557
191 4 0.0 14.018278122 6.420351028 7.028500557
192 4 0.0 18.589836121 9.189548492 0.87401861
193 4 0.0 20.612792969 13.006168365 3.387019873
194 4 0.0 11.995323181 2.603731632 4.515499592
195 4 0.0 27.941871643 13.006168365 4.515499592
196 4 0.0 4.666238785 2.603731632 3.387019873
197 4 0.0 5.023745537 5.201218605 7.338279247
198 4 0.0 27.584365845 10.40868187 0.56423974
199 4 0.0 11.637816429 5.201218605 0.56423974
200 4 0.0 20.970298767 10.40868187 7.338279247
201 4 0.0 23.919826508 9.108377457 0.0
202 4 0.0 7.973275185 6.501523018 0.0
203 4 0.0 8.330781937 1.3034271 3.951259613
204 4 0.0 24.277332306 14.306473732 3.951259613
205 4 0.0 23.919826508 7.620753765 0.0
206 4 0.0 7.973275185 7.989146709 0.0
207 4 0.0 8.330781937 15.425704002 3.951259613
208 4 0.0 24.277332306 0.184196681 3.951259613
209 4 0.0 23.919826508 4.781312943 0.0
210 4 0.0 7.973275185 10.828587532 0.0
211 4 0.0 8.330781937 12.586263657 3.951259613
212 4 0.0 24.277332306 3.023637533 3.951259613
213 4 0.0 23.919826508 14.578085899 0.0
214 4 0.0 7.973275185 1.031814456 0.0
215 4 0.0 8.330781937 6.773135662 3.951259613
216 4 0.0 24.277332306 8.836764336 3.951259613
217 4 0.0 23.919826508 0.455809116 0.0
218 4 0.0 7.973275185 15.154090881 0.0
219 4 0.0 8.330781937 8.260759354 3.951259613
220 4 0.0 24.277332306 7.349141121 3.951259613
221 4 0.0 23.919826508 3.296810865 0.0
222 4 0.0 7.973275185 12.313089371 0.0
223 4 0.0 8.330781937 11.101760864 3.951259613
224 4 0.0 24.277332306 4.508139133 3.951259613
