# LAMMPS data file written by Ovito Basic 3.0.0-dev791
98 atoms
4 atom types
0.0 5.1499657631 xlo xhi
0.0 25.1000003815 ylo yhi
0.0 30.0 zlo zhi

Atoms  # charge

1 1 0.0 0.0 0.0 9.999999046
2 1 0.0 0.0 0.0 15.149964333
3 1 0.0 0.0 5.149965286 9.999999046
4 1 0.0 0.0 5.149965286 15.149964333
5 1 0.0 2.574982643 0.0 12.574981689
6 1 0.0 2.574982643 0.0 17.724946976
7 1 0.0 2.574982643 5.149965286 12.574981689
8 1 0.0 2.574982643 5.149965286 17.724946976
9 1 0.0 2.574982643 2.574982643 9.999999046
10 1 0.0 2.574982643 2.574982643 15.149964333
11 1 0.0 2.574982643 7.724948406 9.999999046
12 1 0.0 2.574982643 7.724948406 15.149964333
13 2 0.0 0.0 2.574982643 12.574981689
14 2 0.0 0.0 2.574982643 17.724946976
15 2 0.0 0.0 7.724948406 12.574981689
16 2 0.0 0.0 7.724948406 17.724946976
17 3 0.0 0.0 10.300000191 9.999999046
18 3 0.0 0.0 10.300000191 16.081798553
19 3 0.0 0.0 14.595118523 9.999999046
20 3 0.0 0.0 14.595118523 16.081798553
21 3 0.0 0.0 18.890230179 9.999999046
22 3 0.0 0.0 18.890230179 16.081798553
23 3 0.0 2.479789972 10.300000191 9.999999046
24 3 0.0 2.479789972 10.300000191 16.081798553
25 3 0.0 2.479789972 14.595118523 9.999999046
26 3 0.0 2.479789972 14.595118523 16.081798553
27 3 0.0 2.479789972 18.890230179 9.999999046
28 3 0.0 2.479789972 18.890230179 16.081798553
29 3 0.0 1.23988986 12.44756031 9.999999046
30 3 0.0 1.23988986 12.44756031 16.081798553
31 3 0.0 1.23988986 16.742668152 9.999999046
32 3 0.0 1.23988986 16.742668152 16.081798553
33 3 0.0 1.23988986 21.037788391 9.999999046
34 3 0.0 1.23988986 21.037788391 16.081798553
35 3 0.0 3.719679594 12.44756031 9.999999046
36 3 0.0 3.719679594 12.44756031 16.081798553
37 3 0.0 3.719679594 16.742668152 9.999999046
38 3 0.0 3.719679594 16.742668152 16.081798553
39 3 0.0 3.719679594 21.037788391 9.999999046
40 3 0.0 3.719679594 21.037788391 16.081798553
41 3 0.0 0.0 11.731710434 12.005378723
42 3 0.0 0.0 11.731710434 18.087177277
43 3 0.0 0.0 16.026830673 12.005378723
44 3 0.0 0.0 16.026830673 18.087177277
45 3 0.0 0.0 20.321939468 12.005378723
46 3 0.0 0.0 20.321939468 18.087177277
47 3 0.0 2.479789972 11.731710434 12.005378723
48 3 0.0 2.479789972 11.731710434 18.087177277
49 3 0.0 2.479789972 16.026830673 12.005378723
50 3 0.0 2.479789972 16.026830673 18.087177277
51 3 0.0 2.479789972 20.321939468 12.005378723
52 3 0.0 2.479789972 20.321939468 18.087177277
53 3 0.0 1.23988986 13.879268646 12.005378723
54 3 0.0 1.23988986 13.879268646 18.087177277
55 3 0.0 1.23988986 18.174377441 12.005378723
56 3 0.0 1.23988986 18.174377441 18.087177277
57 3 0.0 1.23988986 22.469497681 12.005378723
58 3 0.0 1.23988986 22.469497681 18.087177277
59 3 0.0 3.719679594 13.879268646 12.005378723
60 3 0.0 3.719679594 13.879268646 18.087177277
61 3 0.0 3.719679594 18.174377441 12.005378723
62 3 0.0 3.719679594 18.174377441 18.087177277
63 3 0.0 3.719679594 22.469497681 12.005378723
64 3 0.0 3.719679594 22.469497681 18.087177277
65 3 0.0 1.23988986 11.015849113 14.040979385
66 3 0.0 1.23988986 15.310970306 14.040979385
67 3 0.0 1.23988986 19.606077194 14.040979385
68 3 0.0 3.719679594 11.015849113 14.040979385
69 3 0.0 3.719679594 15.310970306 14.040979385
70 3 0.0 3.719679594 19.606077194 14.040979385
71 3 0.0 0.0 13.163408279 14.040979385
72 3 0.0 0.0 17.458518982 14.040979385
73 3 0.0 0.0 21.753637314 14.040979385
74 3 0.0 2.479789972 13.163408279 14.040979385
75 3 0.0 2.479789972 17.458518982 14.040979385
76 3 0.0 2.479789972 21.753637314 14.040979385
77 4 0.0 1.287490845 3.862473726 13.862473488
78 4 0.0 1.287490845 9.012438774 13.862473488
79 4 0.0 1.287490845 1.287490845 13.862473488
80 4 0.0 1.287490845 6.437457561 13.862473488
81 4 0.0 1.287490845 3.862473726 11.287490845
82 4 0.0 1.287490845 3.862473726 16.437456131
83 4 0.0 1.287490845 9.012438774 11.287490845
84 4 0.0 1.287490845 9.012438774 16.437456131
85 4 0.0 3.862473726 3.862473726 11.287490845
86 4 0.0 3.862473726 3.862473726 16.437456131
87 4 0.0 3.862473726 9.012438774 11.287490845
88 4 0.0 3.862473726 9.012438774 16.437456131
89 4 0.0 3.862473726 1.287490845 11.287490845
90 4 0.0 3.862473726 1.287490845 16.437456131
91 4 0.0 3.862473726 6.437457561 11.287490845
92 4 0.0 3.862473726 6.437457561 16.437456131
93 4 0.0 3.862473726 1.287490845 13.862473488
94 4 0.0 3.862473726 6.437457561 13.862473488
95 4 0.0 1.710724831 23.651165009 13.683879852
96 4 0.0 4.28572464 23.651165009 16.258878708
97 4 0.0 4.28572464 23.651165009 13.683879852
98 4 0.0 4.28572464 23.651165009 11.108880043
