# LAMMPS data file written by Ovito Basic 3.0.0-dev791
80 atoms
2 atom types
0.0 2.840051651 xlo xhi
0.0 6.3505482674 ylo yhi
0.0 50.8043861389 zlo zhi

Atoms  # charge

1 1 0.0 0.0 0.0 25.402191162
2 1 0.0 0.0 0.0 31.752738953
3 1 0.0 0.0 0.0 38.103286743
4 1 0.0 0.0 0.0 44.453834534
5 1 0.0 0.0 2.540219069 26.672298431
6 1 0.0 0.0 2.540219069 33.022846222
7 1 0.0 0.0 2.540219069 39.373394012
8 1 0.0 0.0 2.540219069 45.723941803
9 1 0.0 0.0 1.270109534 29.212518692
10 1 0.0 0.0 1.270109534 35.56306839
11 1 0.0 0.0 1.270109534 41.913612366
12 1 0.0 0.0 1.270109534 48.264167786
13 1 0.0 0.0 5.080438137 27.942409515
14 1 0.0 0.0 5.080438137 34.292957306
15 1 0.0 0.0 5.080438137 40.643505096
16 1 0.0 0.0 5.080438137 46.994056702
17 1 0.0 0.0 3.810328722 30.482629776
18 1 0.0 0.0 3.810328722 36.833175659
19 1 0.0 0.0 3.810328722 43.183731079
20 1 0.0 0.0 3.810328722 49.534275055
21 1 0.0 1.420025706 4.445383549 26.037244797
22 1 0.0 1.420025706 4.445383549 32.38779068
23 1 0.0 1.420025706 4.445383549 38.73833847
24 1 0.0 1.420025706 4.445383549 45.08889389
25 1 0.0 1.420025706 0.635054529 27.307355881
26 1 0.0 1.420025706 0.635054529 33.657905579
27 1 0.0 1.420025706 0.635054529 40.008457184
28 1 0.0 1.420025706 0.635054529 46.358997345
29 1 0.0 1.420025706 5.715492725 29.847572327
30 1 0.0 1.420025706 5.715492725 36.198123932
31 1 0.0 1.420025706 5.715492725 42.548667908
32 1 0.0 1.420025706 5.715492725 48.899215698
33 1 0.0 1.420025706 3.175273895 28.577465057
34 1 0.0 1.420025706 3.175273895 34.928012848
35 1 0.0 1.420025706 3.175273895 41.278560638
36 1 0.0 1.420025706 3.175273895 47.629108429
37 1 0.0 1.420025706 1.905164003 31.117683411
38 1 0.0 1.420025706 1.905164003 37.468231201
39 1 0.0 1.420025706 1.905164003 43.818775177
40 1 0.0 1.420025706 1.905164003 50.169330597
41 2 0.0 0.0 0.0 0.0
42 2 0.0 0.0 0.0 6.350547791
43 2 0.0 0.0 0.0 12.701095581
44 2 0.0 0.0 0.0 19.051643372
45 2 0.0 0.0 3.810328722 1.270109534
46 2 0.0 0.0 3.810328722 7.620657444
47 2 0.0 0.0 3.810328722 13.971204758
48 2 0.0 0.0 3.810328722 20.321752548
49 2 0.0 0.0 5.080438137 3.810328722
50 2 0.0 0.0 5.080438137 10.160876274
51 2 0.0 0.0 5.080438137 16.511423111
52 2 0.0 0.0 5.080438137 22.861970901
53 2 0.0 0.0 1.270109534 2.540219069
54 2 0.0 0.0 1.270109534 8.890767097
55 2 0.0 0.0 1.270109534 15.241314888
56 2 0.0 0.0 1.270109534 21.59186554
57 2 0.0 0.0 2.540219069 5.080438137
58 2 0.0 0.0 2.540219069 11.430985451
59 2 0.0 0.0 2.540219069 17.781534195
60 2 0.0 0.0 2.540219069 24.132083893
61 2 0.0 1.420025706 1.905164361 0.635054767
62 2 0.0 1.420025706 1.905164361 6.985602379
63 2 0.0 1.420025706 1.905164361 13.336149216
64 2 0.0 1.420025706 1.905164361 19.686697006
65 2 0.0 1.420025706 5.715493202 1.905164361
66 2 0.0 1.420025706 5.715493202 8.255711555
67 2 0.0 1.420025706 5.715493202 14.606259346
68 2 0.0 1.420025706 5.715493202 20.956806183
69 2 0.0 1.420025706 0.635055006 4.445383549
70 2 0.0 1.420025706 0.635055006 10.79593277
71 2 0.0 1.420025706 0.635055006 17.146478653
72 2 0.0 1.420025706 0.635055006 23.497026443
73 2 0.0 1.420025706 3.175273895 3.175273895
74 2 0.0 1.420025706 3.175273895 9.525821686
75 2 0.0 1.420025706 3.175273895 15.876369476
76 2 0.0 1.420025706 3.175273895 22.226917267
77 2 0.0 1.420025706 4.445383549 5.715493202
78 2 0.0 1.420025706 4.445383549 12.066041946
79 2 0.0 1.420025706 4.445383549 18.41658783
80 2 0.0 1.420025706 4.445383549 24.767137527
