 LAMMPS input for trinclinic P-1 TATB unitcell

 48     atoms
 4      atom types

 0.0   9.22536              xlo xhi
 0.0   7.98776              ylo yhi
 0.0   5.98137              zlo zhi
 -4.60651 -0.01099 -2.74455 xy xz yz

 Masses

 1 12.011
 2 1.0079
 3 15.999
 4 14.007

 Atoms               

           1           1         0.00000        0.41556E+01        0.61397E+00        0.15360E+01
           2           1         0.00000        0.34291E+01       -0.66180E+00        0.14875E+01
           3           1         0.00000        0.19470E+01       -0.62426E+00        0.14875E+01
           4           1         0.00000        0.12072E+01        0.64240E+00        0.15019E+01
           5           1         0.00000        0.19836E+01        0.19002E+01        0.14606E+01
           6           1         0.00000        0.34541E+01        0.19187E+01        0.15073E+01
           7           4         0.00000        0.56066E+01        0.60468E+00        0.16119E+01
           8           4         0.00000        0.40796E+01       -0.18266E+01        0.14289E+01
           9           4         0.00000        0.12062E+01       -0.18696E+01        0.14756E+01
          10           4         0.00000       -0.14107E+00        0.66794E+00        0.15419E+01
          11           4         0.00000        0.12600E+01        0.31595E+01        0.14056E+01
          12           4         0.00000        0.41400E+01        0.30706E+01        0.15055E+01
          13           3         0.00000        0.62725E+01        0.16774E+01        0.16867E+01
          14           3         0.00000        0.62506E+01       -0.48760E+00        0.15796E+01
          15           3         0.00000        0.18143E+01       -0.29840E+01        0.14217E+01
          16           3         0.00000       -0.60435E-01       -0.18903E+01        0.15102E+01
          17           3         0.00000       -0.12956E-01        0.31929E+01        0.13781E+01
          18           3         0.00000        0.18863E+01        0.42773E+01        0.14277E+01
          19           2         0.00000        0.49643E+01       -0.17954E+01        0.14235E+01
          20           2         0.00000        0.36489E+01       -0.25667E+01        0.15551E+01
          21           2         0.00000       -0.57881E+00        0.29769E-01        0.15192E+01
          22           2         0.00000       -0.67446E+00        0.16033E+01        0.15192E+01
          23           2         0.00000        0.36909E+01        0.38354E+01        0.14594E+01
          24           2         0.00000        0.50927E+01        0.30116E+01        0.13398E+01
          25           1         0.00000        0.45225E+00        0.46292E+01        0.44453E+01
          26           1         0.00000        0.11787E+01        0.59050E+01        0.44938E+01
          27           1         0.00000        0.26607E+01        0.58674E+01        0.44938E+01
          28           1         0.00000        0.34006E+01        0.46008E+01        0.44794E+01
          29           1         0.00000        0.26241E+01        0.33429E+01        0.45207E+01
          30           1         0.00000        0.11537E+01        0.33244E+01        0.44740E+01
          31           4         0.00000       -0.99877E+00        0.46385E+01        0.43693E+01
          32           4         0.00000        0.52824E+00        0.70698E+01        0.45524E+01
          33           4         0.00000        0.34015E+01        0.71128E+01        0.45057E+01
          34           4         0.00000        0.47489E+01        0.45752E+01        0.44393E+01
          35           4         0.00000        0.33477E+01        0.20836E+01        0.45757E+01
          36           4         0.00000        0.46783E+00        0.21725E+01        0.44758E+01
          37           3         0.00000       -0.16646E+01        0.35657E+01        0.42946E+01
          38           3         0.00000       -0.16428E+01        0.57308E+01        0.44016E+01
          39           3         0.00000        0.27934E+01        0.82272E+01        0.45596E+01
          40           3         0.00000        0.46682E+01        0.71335E+01        0.44710E+01
          41           3         0.00000        0.46208E+01        0.20502E+01        0.46032E+01
          42           3         0.00000        0.27214E+01        0.96588E+00        0.45536E+01
          43           2         0.00000       -0.35650E+00        0.70386E+01        0.45578E+01
          44           2         0.00000        0.95890E+00        0.78099E+01        0.44262E+01
          45           2         0.00000        0.51866E+01        0.52134E+01        0.44621E+01
          46           2         0.00000        0.52823E+01        0.36398E+01        0.44621E+01
          47           2         0.00000        0.91691E+00        0.14077E+01        0.45219E+01
          48           2         0.00000       -0.48488E+00        0.22315E+01        0.46415E+01
