LAMMPS data file via write_data, version 12 Dec 2018, timestep = 16400000

4240 atoms
3 atom types

7.7131660910925135e+01 1.1386833908907387e+02 xlo xhi
7.7131660910925135e+01 1.1386833908907387e+02 ylo yhi
7.7131660910925135e+01 1.1386833908907387e+02 zlo zhi

Masses

1 12
2 14
3 1.008

Atoms # charge

2705 1 2.6953225085751242e-01 8.0881171768740501e+01 8.4354102384325017e+01 7.9926945194597423e+01 -1 4 -2
4105 3 1.3022319418227921e-01 8.3448135616564656e+01 8.1885575378357913e+01 8.1797247021171401e+01 0 0 0
2706 2 -3.2870538752769446e-01 8.1267389852514668e+01 8.3224658669561450e+01 8.0531969999798307e+01 -1 4 -2
2709 1 -2.6592205476160272e-02 7.9097575150862426e+01 8.2830964453242743e+01 8.1480027548187707e+01 -1 4 -2
2710 1 2.5990130146074969e-01 8.0487265036739927e+01 8.2387934687878783e+01 8.1233298190785518e+01 -1 4 -2
2711 2 -3.3804711076358740e-01 8.0941931672068762e+01 8.1196406765815027e+01 8.1707543539552503e+01 -1 4 -2
4107 1 -3.5902556585090881e-03 8.3700623687738371e+01 8.3659786378069256e+01 8.2990727815646352e+01 0 0 0
68 1 -7.9188166231691795e-02 8.1750479873879002e+01 8.1439371414843322e+01 8.5421743317599777e+01 0 0 0
610 1 2.6112848715123110e-01 7.9131689886010037e+01 7.9197350054830977e+01 7.9376242144884856e+01 0 0 1
606 2 -2.4538248759063822e-01 7.8810982428072720e+01 8.0303640847010371e+01 7.8779230802375722e+01 0 0 1
609 1 5.0946825522365478e-03 8.0621675800834282e+01 7.8869819752265954e+01 7.9430126780385933e+01 0 0 1
4106 1 -6.8879654669429649e-02 8.2332375170860786e+01 8.3817323061591338e+01 8.3361312922818314e+01 0 0 0
4110 3 1.1583436472403921e-01 8.1563229064678836e+01 8.3185405206986431e+01 8.3018783685779653e+01 0 0 0
72 3 8.0263727520794054e-02 8.0941078194886202e+01 8.0824148580797868e+01 8.5046123982931647e+01 0 0 0
69 1 -2.5408653018783221e-02 8.3122270437112462e+01 8.1284811776332049e+01 8.5058877192039390e+01 0 0 0
70 1 2.3757699327595933e-01 8.4192381267798069e+01 8.2181601629484348e+01 8.5550255003942638e+01 0 0 0
63 1 -1.0015424772938071e-01 8.3387984576256031e+01 8.0201283171238444e+01 8.4197368030610633e+01 0 0 0
67 3 1.4467303638818560e-01 8.2621695121183777e+01 7.9570707698404362e+01 8.3877375954853065e+01 0 0 0
4101 1 -7.8862497796396702e-02 8.4155920638865183e+01 8.2595080334124091e+01 8.2193867273280148e+01 0 0 0
64 1 -2.6617617306795148e-02 8.4761997784538465e+01 7.9956432926196925e+01 8.3854402552589661e+01 0 0 0
603 1 -3.2399546295547046e-02 8.1627882603188169e+01 7.9673721669991366e+01 7.8841508601782508e+01 0 0 1
2714 1 -3.6461179517338918e-02 7.8782099071356512e+01 8.0739191792916685e+01 8.2730745170132067e+01 -1 4 -2
2715 1 2.7805429521602104e-01 8.0170309170525385e+01 8.0339358902252670e+01 8.2354778011050968e+01 -1 4 -2
2716 2 -3.4806236479468883e-01 8.0638322814441381e+01 7.9155865441463519e+01 8.2791486950754575e+01 -1 4 -2
2703 1 -6.3670779826921042e-02 7.8627142809823710e+01 8.4040325706166101e+01 8.0945023132278280e+01 -1 4 -2
605 1 2.5636126884065341e-01 7.9755358391815150e+01 8.1159725880355808e+01 7.8178360813446986e+01 0 0 1
607 3 7.8964587980346626e-02 8.2684875507485756e+01 7.9450514860097385e+01 7.8878283681462648e+01 0 0 1
2719 1 -2.5276522342843499e-02 7.8458882514311426e+01 7.8560682330514396e+01 8.3874861571216201e+01 -1 4 -2
2720 1 2.7395631372211038e-01 7.9917677585622314e+01 7.8304673827142679e+01 8.3522636269785622e+01 -1 4 -2
611 2 -2.5884661459840985e-01 7.8208079041241604e+01 7.8388706829097799e+01 7.9927919112649960e+01 0 0 1
604 1 -5.4444567373104769e-03 8.1190851705658204e+01 8.0873263544590259e+01 7.8239791434918885e+01 0 0 1
4108 1 2.3155474777247578e-01 8.4644437369662882e+01 8.4729402698638566e+01 8.3473991600327906e+01 0 0 0
4115 3 5.7054338982940739e-02 7.9669743033273349e+01 8.4577758845362794e+01 8.3890701225178447e+01 0 0 0
4112 1 -2.0049358143035486e-02 8.1837588994722466e+01 8.4967059287122680e+01 8.4005046707045807e+01 0 0 0
2704 1 -1.8820317352664064e-02 7.9471963670449554e+01 8.4788914668041414e+01 8.0111722867355994e+01 -1 4 -2
4109 2 -2.1389912467580877e-01 8.4191209386601301e+01 8.5787124578487450e+01 8.4158269512517649e+01 0 0 0
58 1 -6.9208645128260651e-02 8.5058649567201158e+01 7.8886887454452605e+01 8.3031596126435232e+01 0 0 0
66 2 -2.6875262080774598e-01 8.5454913199698595e+01 8.1936588759544804e+01 8.5167810713958801e+01 0 0 0
2701 2 -3.1504313925211891e-01 8.1682232417230907e+01 8.5182223600711424e+01 7.9215119856096123e+01 -1 4 -2
4111 1 -5.7920930143060809e-02 8.0435470433741557e+01 8.5269062011320344e+01 8.4182075352888134e+01 0 0 0
4113 1 2.3099715241059232e-01 8.2916870160369129e+01 8.5974442985680341e+01 8.4395761176117162e+01 0 0 0
2698 1 -7.4278918057410187e-02 7.9034663834009876e+01 8.5994245627926219e+01 7.9504439123256290e+01 -1 4 -2
4117 1 -2.6160312502254979e-02 8.0122588600930115e+01 8.6588649017307176e+01 8.4641008016999507e+01 0 0 0
2551 3 6.9977732381455132e-02 8.2142081130358605e+01 8.6855273837168113e+01 8.1243238902650191e+01 0 0 0
4116 1 -6.2241770211728657e-02 7.8758260137457427e+01 8.7013385358670178e+01 8.4806620622467634e+01 0 0 0
2869 3 1.2760607946695771e-01 8.4132831545369925e+01 8.7173104562295876e+01 8.1102909354840335e+01 0 0 1
4114 2 -1.8433257067114295e-01 8.2554073441774435e+01 8.7140175221902439e+01 8.4968033047920812e+01 0 0 0
2550 3 5.6287026299005172e-02 7.9584656760987301e+01 8.7250747244422911e+01 8.1536530264514568e+01 0 0 0
2865 1 6.7432567689403922e-02 8.5060294482138247e+01 8.7276868591031501e+01 8.0478586057232050e+01 0 0 1
4118 1 2.3792749845906030e-01 8.1256036489477481e+01 8.7502553548444538e+01 8.5088155496346772e+01 0 0 0
2547 1 6.5673594010254743e-02 8.1703366285132333e+01 8.7817389134444028e+01 8.1613328893779780e+01 0 0 0
4122 1 -2.4219215910090755e-02 7.8638150391636685e+01 8.8348362080010887e+01 8.5249536658091841e+01 0 0 0
2700 1 2.5699075837717789e-01 8.1342230101547145e+01 8.6301565955800243e+01 7.8595418984393632e+01 -1 4 -2
65 1 2.3873251367025233e-01 8.5800291724143079e+01 8.0891849497405246e+01 8.4365202668472605e+01 0 0 0
62 3 6.3180550157130769e-02 8.4201804532552089e+01 7.8346549865195357e+01 8.2661000963805876e+01 0 0 0
4120 3 4.9640438268577475e-02 7.7954503816853361e+01 8.6410521352221537e+01 8.4535881613610528e+01 0 0 0
2699 1 -1.2661722592182997e-02 7.9923522718497281e+01 8.6763499124819532e+01 7.8732216823161892e+01 -1 4 -2
2693 1 -6.3571463555656335e-02 7.9471790058427942e+01 8.7975269320055659e+01 7.8156455297899882e+01 -1 4 -2
3746 2 -2.1411905723242741e-01 8.5266865118830424e+01 8.8525601316274191e+01 8.5511476834884519e+01 0 0 0
2546 1 -7.7001053499847094e-02 8.0302005090619417e+01 8.7996042758939964e+01 8.1811730945818837e+01 0 0 0
2702 3 9.5907442748658867e-02 7.8033053350967805e+01 8.6259254205994054e+01 7.9561711825755836e+01 -1 4 -2
4100 3 5.7326332602472899e-02 8.5291374512848122e+01 8.0819043717422929e+01 8.0525558327573222e+01 0 0 0
4102 1 -1.7660361958146947e-02 8.5511129405523363e+01 8.2549750619065847e+01 8.1867852325123451e+01 0 0 0
2708 1 -6.8597333174179001e-02 7.8253493595669610e+01 8.1986622026166245e+01 8.2279891013177377e+01 -1 4 -2
2866 2 -1.8653151450427324e-01 8.5416830472598747e+01 8.8525749474424615e+01 8.0353192204429263e+01 0 0 1
2713 1 -6.3229727332348634e-02 7.7933630491085793e+01 7.9820217611568523e+01 8.3417412021973902e+01 -1 4 -2
2438 3 6.3732360168490820e-02 8.5053842016913634e+01 7.9675807008651816e+01 7.7470552277907160e+01 0 0 1
2436 1 8.9835353375335394e-02 8.6087516196044348e+01 7.9922753094577359e+01 7.7358266811367727e+01 0 0 1
2868 3 9.5101257921960197e-02 8.5365344125962295e+01 8.5130638712305839e+01 8.0127281708737627e+01 0 0 1
2864 1 -5.5887394600098894e-02 8.5737140828635006e+01 8.6135730591143513e+01 7.9955650015140804e+01 0 0 1
601 2 -2.8558067752355970e-01 7.9361428024095346e+01 8.2230208327034688e+01 7.7511939906468385e+01 0 0 1
4104 2 -2.2825733358545086e-01 8.5930643446488347e+01 8.4630483688506914e+01 8.3160393284320520e+01 0 0 0
4096 1 -5.3001137214267864e-02 8.5949224611123000e+01 8.1521460641663111e+01 8.1019859495127747e+01 0 0 0
3745 1 2.3966824469263401e-01 8.6169644930409191e+01 8.8766581771800759e+01 8.4483734140447226e+01 0 0 0
2718 1 -5.7346869918289800e-02 7.7637453794853954e+01 7.7651190325654639e+01 8.4542077927891327e+01 -1 4 -2
73 1 -5.5132102420123112e-02 8.0090847072030328e+01 8.2868288513507352e+01 8.6262023679535758e+01 0 0 0
2707 3 8.4723441676568659e-02 7.7613213357843264e+01 8.4350586102490112e+01 8.1125160372313545e+01 -1 4 -2
77 3 3.2034581679763099e-02 7.9320547400665234e+01 8.2126988438366212e+01 8.5989237373016749e+01 0 0 0
608 1 -4.7096714409560536e-02 8.1013012472502524e+01 7.7711450450613995e+01 8.0132149833620389e+01 0 0 1
4121 1 -6.4050318565013142e-02 7.7321370189724917e+01 8.8938125597834158e+01 8.5291589929284171e+01 0 0 0
4119 2 -2.3144410889304970e-01 8.1023369833789161e+01 8.8700736003349007e+01 8.5543713192574700e+01 0 0 0
2697 3 9.1457720475080356e-02 7.8455524958962982e+01 8.8348890814052353e+01 7.8363756407923944e+01 -1 4 -2
2712 3 7.7455085523419620e-02 7.7209529347922484e+01 8.2166307983779490e+01 8.2371527678697191e+01 -1 4 -2
74 1 -3.7780154847800354e-02 8.1448215392591450e+01 8.2621192425403436e+01 8.6080400059370476e+01 0 0 0
2696 2 -2.5577523616477704e-01 8.2196858011976900e+01 8.7038595020514933e+01 7.7859889773518702e+01 -1 4 -2
2545 1 -4.7316798093568493e-02 7.9930868883527040e+01 8.9304073651207389e+01 8.2131512619039853e+01 0 0 0
602 3 8.9633756818529975e-02 8.3220405034682173e+01 8.1441094713051427e+01 7.7606445941585477e+01 0 0 1
598 1 -4.8096202355618858e-02 8.2158579455198705e+01 8.1718261107278607e+01 7.7583778769829550e+01 0 0 1
612 3 8.4539502188963569e-02 8.2050750363213126e+01 7.7576108374448424e+01 8.0200141267616360e+01 0 0 1
2694 1 -7.9069464200163149e-03 8.0378964538474662e+01 8.8629519962133571e+01 7.7322063047694968e+01 -1 4 -2
615 1 2.4629791970809822e-01 7.8574086943491437e+01 7.7275085286673331e+01 8.0561753145605095e+01 0 0 1
2548 2 -2.2056158278417398e-01 8.2615466364863195e+01 8.8770033196529994e+01 8.1781663490003041e+01 0 0 0
2695 1 2.4531802726157478e-01 8.1810122366895953e+01 8.8178728609235534e+01 7.7231234280198123e+01 -1 4 -2
71 2 -2.7783813649899247e-01 8.3836471071543684e+01 8.3230060529983575e+01 8.6302685819568012e+01 0 0 0
4123 1 2.6104286256357534e-01 7.9819417889352508e+01 8.9277057111857630e+01 8.5581465210866753e+01 0 0 0
2433 2 -2.8218734037599097e-01 8.6398210348902438e+01 8.1214511732575488e+01 7.7410722241294806e+01 0 0 1
3331 1 2.6175950097106127e-01 9.5431043152674050e+01 8.6430541486309892e+01 8.0924378495147266e+01 0 0 0
2450 3 5.6353751144832889e-02 9.5081574512195544e+01 8.8881396341280549e+01 7.7437711004932424e+01 1 -2 1
59 1 -3.4710095655739126e-02 8.6388814523626792e+01 7.8682015162137134e+01 8.2578499276542786e+01 0 0 0
2879 3 1.1857674177278821e-01 9.0732160007882072e+01 8.9031034236151839e+01 7.7356541618744075e+01 0 0 1
3928 3 8.0333592336584769e-02 9.4965409625367855e+01 8.8805694682904388e+01 8.3905403374364994e+01 1 -1 0
3739 1 -1.4535717746264502e-02 8.8055778817051944e+01 8.9248520624734553e+01 8.2471217761092205e+01 0 0 0
2872 1 2.5345063471735224e-01 8.6449433240586600e+01 8.8857894612632208e+01 7.9567606504972559e+01 0 0 1
3332 2 -2.9981996059976340e-01 9.4805792428130459e+01 8.5356090398784175e+01 8.1346940138610435e+01 0 0 0
4085 3 1.2781879913385297e-01 9.1332246076378354e+01 7.7317838622751253e+01 7.7887466392964313e+01 0 0 0
4076 1 -8.6820186835774929e-02 9.3994365671144749e+01 7.7369944233153390e+01 7.7229141124781009e+01 0 0 0
54 1 -3.6261570578533305e-02 8.7967665654604005e+01 7.7309584964226516e+01 8.1592704147381724e+01 0 0 0
3722 3 5.4442696263499762e-02 9.4923272738463325e+01 8.7049876782007487e+01 7.7404085746190617e+01 0 0 0
3351 1 2.5720703796486050e-01 8.8792483191091378e+01 8.2213025604943169e+01 8.6207306311604981e+01 0 0 0
4103 1 2.3558238721315677e-01 8.6419439183231489e+01 8.3601014729315636e+01 8.2402866808138938e+01 0 0 0
2871 1 8.6089297364068708e-03 8.7239381561694728e+01 8.7756841548039020e+01 7.8922002000240354e+01 0 0 1
3741 2 -2.4086835219680680e-01 8.6730501581928792e+01 8.7735567592797366e+01 8.3876984106554062e+01 0 0 0
2863 1 -5.4941850891729205e-02 8.6806130799330845e+01 8.6382031080185200e+01 7.9083908968430350e+01 0 0 1
2611 3 1.4385641514213471e-01 9.1778128476798912e+01 7.9530836663716684e+01 8.3877766419954114e+01 0 1 0
3339 1 -5.4191337025973056e-02 9.0168441938937974e+01 8.5699198917730826e+01 8.4345117996147195e+01 0 0 0
2616 3 1.6775723210308097e-01 9.3151188898945122e+01 8.0924857667328183e+01 8.2459246419855020e+01 0 1 0
3564 2 -2.9844505943280092e-01 9.5395613476926727e+01 8.2132899890105762e+01 8.5855715217897327e+01 0 0 0
4087 1 -1.7334283764151789e-02 9.1210371472231415e+01 7.9251764688945102e+01 7.9013675629285501e+01 0 0 0
2870 1 -6.8823830818470058e-02 8.8404292934215476e+01 8.8092391181352909e+01 7.8221904254226459e+01 0 0 1
3719 1 -3.9289421456369017e-02 9.4944271223278804e+01 8.4890381524280130e+01 7.7302624375967525e+01 0 0 0
3714 2 -2.5805370721234799e-01 9.4733396770909806e+01 8.2501306028116488e+01 7.7246768479421576e+01 0 0 0
3726 2 -2.2624997303704283e-01 9.1472111423889061e+01 8.4890287376940520e+01 7.9694711303383158e+01 0 0 0
3348 3 1.5035861367297879e-01 8.7822187467226371e+01 8.5486826385914114e+01 8.5589434757049844e+01 0 0 0
2618 1 1.1835456637443380e-02 9.5163792734047405e+01 8.0424966936261995e+01 8.1884498021514915e+01 0 1 0
2612 1 -7.8092848386440303e-02 9.3954077458692268e+01 8.0208806772100573e+01 8.2538335506296676e+01 0 1 0
3336 1 2.5025476959557180e-01 9.3634746076927797e+01 8.5428711128057245e+01 8.2092871187562309e+01 0 0 0
2867 3 1.4099081410005271e-01 8.7316722343046166e+01 8.5533029103869097e+01 7.8691253239405043e+01 0 0 1
3723 1 -4.9688151938705849e-02 9.2508073124618406e+01 8.7409977370270525e+01 7.8806689799396807e+01 0 0 0
3731 2 -2.4691063421119275e-01 8.9799864309624013e+01 8.5912596192447253e+01 8.0916493569521606e+01 0 0 0
3345 1 2.0724249254906769e-02 8.9636416013365206e+01 8.4466586094519300e+01 8.4803990118133498e+01 0 0 0
4094 2 -1.9709832591576726e-01 8.9566671629647033e+01 8.2373811285238162e+01 8.1222514397166108e+01 0 0 0
3346 1 2.5764272208569039e-01 9.0299217330835603e+01 8.3149234004077414e+01 8.4673049072321120e+01 0 0 0
4090 3 7.5216656443025026e-02 8.9197653471646319e+01 7.8434910981068086e+01 7.8880772767567350e+01 0 0 0
4088 1 2.3947616243409497e-01 9.2100315073645902e+01 8.0265728047682003e+01 7.9643202862758258e+01 0 0 0
3329 1 -6.2803741217543743e-02 9.3596428469280966e+01 8.7989720257173815e+01 8.1804141197868077e+01 0 0 0
3343 3 1.4629773224331460e-01 8.9681210209046483e+01 8.6638535837229867e+01 8.4481713358117091e+01 0 0 0
4079 2 -2.4443911700316373e-01 9.5342619699285422e+01 7.9463982525173947e+01 7.8605250199921457e+01 0 0 0
4092 1 -1.6399558886568379e-02 8.9302576947240340e+01 8.0410354061860858e+01 7.9837797999312585e+01 0 0 0
3720 1 2.2651204073757417e-01 9.4210410767948261e+01 8.3687498018143344e+01 7.7681276438855832e+01 0 0 0
2608 1 -1.2475067505824687e-02 9.2141255080787019e+01 7.7317549796157920e+01 8.3951814102708283e+01 0 1 0
4097 1 -1.2514620963863018e-02 8.7307303892525695e+01 8.1560922682917067e+01 8.0732183769146673e+01 0 0 0
55 1 2.3392152438019964e-01 8.8976032287846678e+01 7.8319380732996990e+01 8.1982821221929100e+01 0 0 0
3734 1 -3.7787262897744367e-02 8.9752506042948738e+01 8.8359804522016006e+01 8.1078956748309935e+01 0 0 0
2621 3 1.8218620497161528e-01 9.4556381383392420e+01 8.2235933737149850e+01 8.1011160433202775e+01 0 1 0
4099 2 -2.1817801884742760e-01 8.7702955649978293e+01 8.3484641365929562e+01 8.2117667076319407e+01 0 0 0
60 1 2.3941163798191134e-01 8.7392988628157624e+01 7.9649934357449681e+01 8.3072385149692295e+01 0 0 0
4086 1 -5.2523479400074839e-02 8.9859325968687671e+01 7.9272228839394174e+01 7.9194396307554570e+01 0 0 0
3925 1 7.1453070355087606e-02 9.2979155216029767e+01 8.8805081303496976e+01 8.4726069180306538e+01 1 -1 0
3730 1 2.3477591804602033e-01 9.0815446257254010e+01 8.5972980040402277e+01 8.0056349835804966e+01 0 0 0
53 1 -7.7694572703529266e-02 8.6591257401806047e+01 7.7591849049857629e+01 8.1732197006921396e+01 0 0 0
51 2 -2.8816709498829046e-01 9.0258685445479159e+01 7.7997345395565318e+01 8.1662191909869492e+01 0 0 0
3344 1 -6.9731199206490818e-02 8.8444212716747245e+01 8.4592360493269652e+01 8.5605350411750081e+01 0 0 0
2614 1 2.4630028207302729e-01 9.4776235484763617e+01 7.7923837821969457e+01 8.3039364622786792e+01 0 1 0
3338 3 1.1699842805107802e-01 9.1380995817949511e+01 8.7735685742108728e+01 8.3402813093332469e+01 0 0 0
4089 2 -2.4070389530658556e-01 9.1486762804720598e+01 8.1298962379181447e+01 8.0306255437019871e+01 0 0 0
3736 2 -2.5761755755111221e-01 8.8282215582441125e+01 8.6833221387582540e+01 8.2361887178919375e+01 0 0 0
3721 2 -2.6315489852175089e-01 9.3114706370004583e+01 8.3754842517940119e+01 7.8480878120123805e+01 0 0 0
3330 1 -3.5676661236297050e-02 9.4863477170957594e+01 8.7801928866799400e+01 8.1264010824840938e+01 0 0 0
3333 3 6.4499308769764868e-02 9.3138486527391422e+01 8.8975651087461401e+01 8.1954315450482923e+01 0 0 0
3718 1 -4.8081186819750377e-02 9.4405454136555988e+01 8.6137336734306189e+01 7.7699297664129148e+01 0 0 0
3340 1 9.3033076461480069e-03 9.1353262167159940e+01 8.5591532594203798e+01 8.3578311264812982e+01 0 0 0
3740 1 2.2755145032100199e-01 8.7619254220586186e+01 8.7901302507363155e+01 8.2874630486017111e+01 0 0 0
3724 1 -2.5283138024278316e-02 9.3184020548399772e+01 8.6189168568324334e+01 7.8458433520471800e+01 0 0 0
2607 1 -8.6446392528582966e-02 9.2454397862935792e+01 7.8713334499639174e+01 8.3788741288024681e+01 0 1 0
3729 1 -3.5766173369495238e-02 9.1307670159395371e+01 8.7335295696305920e+01 7.9600525406377457e+01 0 0 0
3347 2 -2.5475242199958503e-01 8.9748269467283180e+01 8.2086816620001827e+01 8.5317687378458714e+01 0 0 0
61 2 -2.4326902646024395e-01 8.7025877986441145e+01 8.0649819317126727e+01 8.3958270148642455e+01 0 0 0
3728 1 -6.3794598933025373e-02 9.0700704004780832e+01 8.8521844014167328e+01 8.0029580546046589e+01 0 0 0
2613 1 2.6727329352650570e-03 9.3702420149825301e+01 7.8960952003222374e+01 8.3132767850036970e+01 0 1 0
3337 2 -2.5782537322798793e-01 9.3091304337958888e+01 8.4314333531454736e+01 8.2572629686474201e+01 0 0 0
2606 3 9.4149535147357355e-02 9.0023482302759604e+01 7.7509528774880479e+01 8.4557815807126104e+01 0 1 0
4083 1 2.4347049404559126e-01 9.4024258804613822e+01 7.9368199754546382e+01 7.8672699682698450e+01 0 0 0
3334 1 -7.7921372781402390e-02 9.1886692962305261e+01 8.6836959654039603e+01 8.3129128287939849e+01 0 0 0
3735 1 2.2548599308514403e-01 8.9251403456563281e+01 8.6993016012497449e+01 8.1461017512377822e+01 0 0 0
3335 1 -2.2264707175740726e-02 9.3027991560186635e+01 8.6735056581816195e+01 8.2267130094895009e+01 0 0 0
4091 1 -4.9680681820977568e-02 8.7904520076609259e+01 8.0504837918388858e+01 7.9940363233899973e+01 0 0 0
4093 1 2.5123505571337695e-01 9.0171238499918857e+01 8.1438691963020446e+01 8.0464093352109344e+01 0 0 0
4098 1 2.4394917722719472e-01 8.8248793237900884e+01 8.2536071586952374e+01 8.1339824753282016e+01 0 0 0
4095 3 7.3399380760158256e-02 8.7284955438162200e+01 7.9715131712285995e+01 7.9525313028140644e+01 0 0 0
3929 3 5.9535294498662884e-02 9.3061961306741992e+01 8.7798815175448937e+01 8.5131011046183062e+01 1 -1 0
4082 1 -5.7349700239010537e-03 9.3240765960632814e+01 7.8237083816001885e+01 7.8033484657281562e+01 0 0 0
3725 1 2.4843116901999185e-01 9.2594104530486518e+01 8.4868877761185360e+01 7.8921041838600331e+01 0 0 0
3341 1 2.6760335974209642e-01 9.1961294639679977e+01 8.4273329865684858e+01 8.3363226515724335e+01 0 0 0
3342 2 -2.3934405438231365e-01 9.1421155297635508e+01 8.3173844538689650e+01 8.3899970185686982e+01 0 0 0
4081 1 -7.8537155309137935e-02 9.1871840044990307e+01 7.8229557496667553e+01 7.8258376926440263e+01 0 0 0
4084 2 -2.6296382131186985e-01 9.3406325523215514e+01 8.0293823657993229e+01 7.9433393663896879e+01 0 0 0
2874 3 1.4715707761216199e-01 8.9035947750128699e+01 8.7335721303110063e+01 7.7773034559429817e+01 0 0 1
3727 3 4.6934130369853111e-02 9.2930529415076165e+01 8.8342567603686646e+01 7.8552694122963587e+01 0 0 0
56 2 -2.7631869200778825e-01 8.8624774729158986e+01 7.9416833020787593e+01 8.2680942376043788e+01 0 0 0
2617 1 -7.8239683018837741e-02 9.5338419115229314e+01 8.1568350874270067e+01 8.1063088992313936e+01 0 1 0
3563 1 2.5519051695812478e-01 9.5061685733555521e+01 8.3354900346636725e+01 8.6278847340013385e+01 0 0 0
3924 1 -9.3654178704759561e-02 9.4065997177394905e+01 8.9374308504468630e+01 8.4051403376031033e+01 1 -1 0
1815 1 -6.7809004837880618e-02 8.0369520552546547e+01 7.9753092884298624e+01 8.7216841452400487e+01 1 -1 1
80 1 2.3681731252147870e-01 8.0879683075329595e+01 8.5027837616078628e+01 8.7351123711890182e+01 0 0 0
1821 1 -1.8410765036838361e-02 8.1348610004018042e+01 7.8758368292007589e+01 8.7182686597376815e+01 1 -1 1
84 1 -2.1870013620455021e-02 7.8125142467140691e+01 8.5641574824710943e+01 8.7603177891019058e+01 0 0 0
81 2 -2.2118082978423345e-01 8.0501351571362605e+01 8.6170700985989498e+01 8.7888488316785910e+01 0 0 0
85 1 2.2164602038615946e-01 7.9219559193971435e+01 8.6623713118484957e+01 8.7951094229656462e+01 0 0 0
86 2 -2.0676753424262653e-01 7.8932217379228405e+01 8.7876770665426463e+01 8.8325271225066800e+01 0 0 0
4001 1 -2.5912630983575595e-02 7.8201374309626786e+01 8.3600902458769355e+01 9.0496810491643146e+01 1 0 0
3995 1 -5.6783383825067646e-02 7.9466571176357633e+01 8.2979042627931790e+01 9.0647005611111510e+01 1 0 0
3999 3 6.5140590170255794e-02 8.0337382572660019e+01 8.3588801492821077e+01 9.0947569000431344e+01 1 0 0
3997 1 2.5364984464917167e-01 7.8378534428788726e+01 8.0804424289765493e+01 9.0338674671435200e+01 1 0 0
3996 1 -3.6904663214566813e-02 7.9606503270767945e+01 8.1600001442963745e+01 9.0526370602994760e+01 1 0 0
4000 1 -7.9728597106217589e-02 7.8039589306524988e+01 8.4962186396738545e+01 9.0771191611574352e+01 1 0 0
3363 3 6.4299538312069957e-02 8.4068693063993237e+01 8.2508180570336009e+01 9.1183315816610062e+01 0 0 0
2008 1 2.6729179906901629e-01 7.8775300760649444e+01 7.8319618457974784e+01 9.4116586020372978e+01 1 0 -1
3365 1 -4.1912535209913115e-02 8.4556924450158178e+01 8.0483422416288462e+01 9.1828258873329588e+01 0 0 0
4004 3 1.0382956452433301e-01 7.8864357797656979e+01 8.5578402053234925e+01 9.0858906262530923e+01 1 0 0
2007 1 -1.8886787050208024e-02 8.0129990761129619e+01 7.8905715492999761e+01 9.3935551795570049e+01 1 0 -1
2004 2 -2.9535169318329246e-01 7.7765275207713131e+01 7.9141068048201632e+01 9.4258093513131030e+01 1 0 -1
2001 1 -4.3579988816662293e-02 8.0294030649862378e+01 8.0290644277988434e+01 9.4013381486017238e+01 1 0 -1
2003 1 2.5899653184539451e-01 7.7848730867563518e+01 8.0504571530462414e+01 9.4418994649555600e+01 1 0 -1
2002 1 -2.1792710505872122e-02 7.9176342350318819e+01 8.1095625481879466e+01 9.4290693002600506e+01 1 0 -1
1997 1 -2.6680983331869301e-02 7.8372811715017534e+01 8.3230216644689378e+01 9.5044245662608830e+01 1 0 -1
1996 1 -4.8926510211731430e-02 7.9425386291468968e+01 8.2451245108052959e+01 9.4543616893043364e+01 1 0 -1
3359 1 -5.6883776451482272e-02 8.4616322379604782e+01 8.1572943006557949e+01 9.0932696590893201e+01 0 0 0
2005 3 4.6426891886752475e-02 8.1279347394167317e+01 8.0767279192146106e+01 9.4005811830133496e+01 1 0 -1
3990 1 -5.6470043160105218e-02 8.0920098853472197e+01 8.0978355565205476e+01 9.0689793513832285e+01 1 0 0
3991 1 -3.2335146706344638e-02 8.0932411120407593e+01 7.9593677313552845e+01 9.0584570231559582e+01 1 0 0
3360 1 -2.4539049053174188e-02 8.5560070603474259e+01 8.1533568732989664e+01 8.9894993182705960e+01 0 0 0
3993 2 -2.9151260541598706e-01 7.8478778831144879e+01 7.9441171345435720e+01 9.0308143055606905e+01 1 0 0
3994 3 4.5701019586743497e-02 8.1821722295127017e+01 8.1575973582583288e+01 9.0911123143966691e+01 1 0 0
3366 1 2.5126296741384635e-01 8.5333743777784804e+01 7.9235971276561173e+01 9.1602107626064353e+01 0 0 0
3358 3 1.0656139417262291e-01 8.5129035320797371e+01 8.3515308806123514e+01 8.9128766380018760e+01 0 0 0
3354 1 -6.4736994187437141e-02 8.5759067925144890e+01 8.2657628885503343e+01 8.9071585850070420e+01 0 0 0
3989 3 7.8234182269084726e-02 8.3046609074888963e+01 7.9477343656170007e+01 9.0557716706397756e+01 1 0 0
897 1 -3.7378550745321037e-02 8.5572403486523356e+01 8.3932593000382838e+01 9.3366845605905155e+01 0 0 0
891 1 -5.5661216748846241e-02 8.4420248252444779e+01 8.4515923838882145e+01 9.3980458952815809e+01 0 0 0
892 1 -3.7365557713546965e-02 8.4069644904172208e+01 8.5852270918493645e+01 9.3747103097128274e+01 0 0 0
3985 1 -6.6150164352113489e-02 8.2134642342494033e+01 7.8901407668060813e+01 9.0572159108686719e+01 1 0 0
2010 3 9.0575157948876564e-02 8.2218792083609898e+01 7.8331900831841381e+01 9.3566286945652990e+01 1 0 -1
2006 1 -4.1778998796004232e-02 8.1235177055803177e+01 7.7994307887126737e+01 9.3767148954120856e+01 1 0 -1
2000 3 4.4059450148947993e-02 8.0426869659498649e+01 8.2800444984236591e+01 9.4554465253165290e+01 1 0 -1
1816 1 -2.1718887739347586e-02 7.8995760997089789e+01 7.9346971487880850e+01 8.7332874279329616e+01 1 -1 1
1826 1 -3.0807574139350806e-02 8.3652460745129460e+01 7.8066644625304832e+01 8.7052231921146472e+01 1 -1 1
1820 1 -6.8759268808768273e-02 8.2684269111589572e+01 7.9106740798081717e+01 8.7078020577892076e+01 1 -1 1
900 3 7.2734883660570709e-02 8.5463473618053030e+01 8.2003322095973957e+01 9.4448971347570819e+01 0 0 0
76 2 -2.4826557717009007e-01 8.2160397431954664e+01 8.4629924792870227e+01 8.7182773643556317e+01 0 0 0
3364 1 -6.0799318999979889e-02 8.3890527813144885e+01 8.0682752084471502e+01 9.3069237032740062e+01 0 0 0
90 1 2.1954773325497609e-01 7.7678962758150689e+01 8.8296435097561798e+01 8.8470811666208434e+01 0 0 0
4009 3 1.1597030939987341e-01 7.7277887994778126e+01 8.7518012359328026e+01 9.1195842521002248e+01 1 0 0
1819 3 7.8441458874767236e-02 8.0585237010552461e+01 8.0818366740807548e+01 8.7208346779399804e+01 1 -1 1
3992 1 2.6107449002932770e-01 7.9631359976879025e+01 7.8841363767970606e+01 9.0444089815069589e+01 1 0 0
1825 1 -7.1244398373475668e-02 8.5035020625683387e+01 7.8380525005954354e+01 8.6926521141994073e+01 1 -1 1
1810 1 -5.5137703804949992e-02 7.7938568914709890e+01 8.0291903417274668e+01 8.7295326508412131e+01 1 -1 1
889 2 -3.1120226810721363e-01 8.4437404257123461e+01 8.7891467296874026e+01 9.2488475039532602e+01 0 0 0
1814 3 6.0183017448388713e-02 7.8113602424132495e+01 8.1294974892263411e+01 8.7183392914372320e+01 1 -1 1
895 3 4.7705156640503954e-02 8.3883347326021067e+01 8.3942941696021421e+01 9.4735252218728562e+01 0 0 0
3367 2 -3.2594390798746331e-01 8.5407213822796564e+01 7.8326615100245021e+01 9.2556935514123850e+01 0 0 0
893 1 2.5962326536120239e-01 8.4818779997889820e+01 8.6634977824596831e+01 9.2741159858393132e+01 0 0 0
886 1 -5.0776778418769784e-02 8.2913656428831700e+01 8.6369929475009968e+01 9.4335360456318625e+01 0 0 0
78 1 -5.4315508218066313e-02 7.8460836930490288e+01 8.4324914190052112e+01 8.7179045753172829e+01 0 0 0
3984 3 1.2159896440532209e-01 8.4311038971081828e+01 7.7204802185511042e+01 9.0336360597507067e+01 1 0 0
887 1 -3.8162922209702528e-02 8.2570954235361910e+01 8.7734157608358714e+01 9.4038406660629292e+01 0 0 0
3368 3 3.7555579085183061e-02 8.3347275830373007e+01 8.1564985656408169e+01 9.3249102569496856e+01 0 0 0
3371 1 2.5714620722425729e-01 8.4786962623692190e+01 7.8461395321002058e+01 9.3752736290402055e+01 0 0 0
79 1 -2.9443860952423587e-02 7.9813525744675232e+01 8.4073133770158393e+01 8.6948416161930027e+01 0 0 0
1829 3 1.0782376933349491e-01 8.5267003194569028e+01 7.9434487858333924e+01 8.6875465855173346e+01 1 -1 1
3370 1 -5.5954567185734577e-02 8.4001963699702557e+01 7.9703483652806042e+01 9.4066433364631891e+01 0 0 0
2813 3 1.3298084981510738e-01 8.5644565535324702e+01 8.7856807638134939e+01 8.9415654803333979e+01 0 0 -1
1817 1 2.4471605024991130e-01 7.8663753513848761e+01 7.7952454972338785e+01 8.7440598702241942e+01 1 -1 1
1824 3 7.8996924692729981e-02 8.2950958793384316e+01 8.0109863173021026e+01 8.7088370380732599e+01 1 -1 1
890 3 4.7914374392116141e-02 8.2314642465895830e+01 8.5791305246308809e+01 9.4995057866417710e+01 0 0 0
1813 2 -2.6073941344554280e-01 7.7340224046698438e+01 7.7593673426813154e+01 8.7635270826613691e+01 1 -1 1
888 1 2.6216615648520980e-01 8.3374201759554907e+01 8.8512086400970730e+01 9.3062774428533345e+01 0 0 0
1822 1 2.4224762817180864e-01 8.0903608469733854e+01 7.7342007762693669e+01 8.7144228263092586e+01 1 -1 1
881 1 -4.5611261373344571e-02 8.1392756923539764e+01 8.8310808561363928e+01 9.4590783500479660e+01 0 0 0
3372 2 -3.2814357219478607e-01 8.4855982464479425e+01 7.7502237198156706e+01 9.4647263383028502e+01 0 0 0
894 2 -3.1544048618322440e-01 8.5839222476093482e+01 8.6013779169251890e+01 9.2124486988428487e+01 0 0 0
82 3 4.8712722193010462e-02 7.7694340414324486e+01 8.3598116978529902e+01 8.7011894452336634e+01 0 0 0
3369 1 -6.3214983627174801e-02 8.3284225692424755e+01 7.9795582618618312e+01 9.5268631470093979e+01 0 0 0
896 1 -5.4685424403941606e-02 8.5945444469792463e+01 8.2617246690467795e+01 9.3731963494213062e+01 0 0 0
898 1 2.5395547315682127e-01 8.6259522017105382e+01 8.4758538622276390e+01 9.2368059965709961e+01 0 0 0
3362 2 -2.9351349563347223e-01 8.6114148024682180e+01 7.9229704456571980e+01 9.0485489253014791e+01 0 0 0
3986 1 -2.5079419950761097e-02 8.2144996200868476e+01 7.7501104586775696e+01 9.0458595994517054e+01 1 0 0
3988 2 -2.9490397072501900e-01 7.9726068716339896e+01 7.7497210529291550e+01 9.0381994269276206e+01 1 0 0
3998 2 -2.9097017281645748e-01 7.7193600441608751e+01 8.1398576810093260e+01 9.0240491661251511e+01 1 0 0
3361 1 2.6565226744726356e-01 8.6310146543820423e+01 8.0234936313927165e+01 8.9671936073901435e+01 0 0 0
885 3 3.5547948001895549e-02 8.0723501580773842e+01 8.7685373906338825e+01 9.5223686162433864e+01 0 0 0
1831 1 -1.8675480882179941e-02 8.5990423532838946e+01 7.7288095029258528e+01 8.6994697920884079e+01 1 -1 1