LAMMPS data file via write_data, version 12 Dec 2018, timestep = 16800000

5680 atoms
3 atom types

7.6552436076715182e+01 1.1544756392328320e+02 xlo xhi
7.6552436076715182e+01 1.1544756392328320e+02 ylo yhi
7.6552436076715182e+01 1.1544756392328320e+02 zlo zhi

Masses

1 1.008
2 12
3 14

Atoms # charge

3070 1 1.1149053609845690e-01 7.9844595814218920e+01 8.1574293377523603e+01 7.8763897797255481e+01 0 0 0
3069 2 -7.8826036093343876e-02 7.9223164189403107e+01 8.1758269162964993e+01 7.7833106295591705e+01 0 0 0
3075 1 5.2886857965070026e-02 8.0143547844943313e+01 7.9228820564102591e+01 7.8237833912708112e+01 0 0 0
3247 1 9.3348123749593143e-02 8.0756175524252598e+01 7.9392443878042542e+01 8.2194666718911776e+01 0 1 0
3241 2 -5.7518454849193816e-02 8.1523783944830583e+01 7.8194975386313416e+01 7.9976191852356123e+01 0 1 0
3242 1 5.8647564864963496e-02 8.0930949576358046e+01 7.9154489245545165e+01 7.9811748137108879e+01 0 1 0
3256 2 1.1528935993733430e-01 7.8631874156781379e+01 8.0954317787027009e+01 8.2128911196883038e+01 0 1 0
3257 3 -1.7679250526561863e-01 7.9055954042585654e+01 8.1972735159151966e+01 8.1757253286431720e+01 0 1 0
3251 2 -6.8118392521545210e-02 7.8093273322354420e+01 7.9682175254549762e+01 8.2588684436198776e+01 0 1 0
4762 1 1.1627192374480488e-01 8.1752621074857871e+01 8.1466285091680774e+01 8.4553743449667465e+01 0 0 0
3248 2 -1.2259952486064150e-01 7.8749006531999868e+01 7.8493611655327982e+01 8.1827925225801437e+01 0 1 0
3089 2 -7.4079992745764878e-02 7.7607447433551016e+01 7.8091032953115288e+01 7.8485601553335883e+01 0 0 0
3090 1 5.6390180263179282e-02 7.8001824107543513e+01 7.8936023567347434e+01 7.9016464357110067e+01 0 0 0
3246 2 -7.9796067042780736e-02 8.0277435149513821e+01 7.8438289419007518e+01 8.2229538261486411e+01 0 1 0
3074 2 -6.3232314559795402e-02 7.9591062774543587e+01 7.9215857200198542e+01 7.7323177660975489e+01 0 0 0
4764 1 1.2335789080337234e-01 8.2011700302375772e+01 8.1814619473009557e+01 8.1974018396744825e+01 0 0 0
3249 1 5.9263059946462041e-02 7.8651024713556339e+01 7.8683289988465006e+01 8.0760505809844176e+01 0 1 0
3253 2 -2.1589178218355382e-01 7.8147092668930597e+01 7.9573125882864645e+01 8.4187037740269574e+01 0 1 0
4760 2 -1.4546904493222079e-01 8.2432270541791581e+01 8.2169934381759873e+01 8.4103077804676730e+01 0 0 0
3243 2 -1.2324333517601639e-01 8.0977291832145553e+01 7.7410342598466627e+01 8.1189112502690307e+01 0 1 0
3258 2 1.1694053312763515e-01 8.0553558415663161e+01 7.7984171985824929e+01 8.3625581306972293e+01 0 1 0
3067 1 7.2670841509045736e-02 7.7104642120107215e+01 8.2257368840550441e+01 7.8540765426430212e+01 0 0 0
3254 1 1.3784808799518938e-01 7.9177863144173216e+01 7.9799402886336594e+01 8.4566378130619057e+01 0 1 0
3076 2 -1.3983911859892970e-01 7.8567547801925500e+01 7.7952784769479194e+01 7.7249854797836022e+01 0 0 0
3238 2 -1.3715495682266177e-01 8.1560158523790335e+01 7.7309372594536612e+01 7.8731607105542693e+01 0 1 0
3250 1 8.7040240766128360e-02 7.8264081514886669e+01 7.7586763350777147e+01 8.2007052108622943e+01 0 1 0
3072 1 6.3230430566143622e-02 7.7690252942738354e+01 8.0356321701678752e+01 7.7602656925309063e+01 0 0 0
3071 2 -1.2264363983244750e-01 7.8645202047239593e+01 8.0487790818443543e+01 7.7125668839154002e+01 0 0 0
3259 3 -2.0092731634539152e-01 8.0735589463453991e+01 7.7600691746722092e+01 8.4724063157588375e+01 0 1 0
3081 2 1.2121393035298221e-01 8.0048804734284133e+01 8.2325928349304476e+01 7.6729999087219852e+01 0 0 0
3266 1 8.5143435629164682e-02 7.7867401370604441e+01 7.8579889330606377e+01 8.4549799481438470e+01 0 1 0
3078 1 1.2031967678020813e-01 7.9126334135956327e+01 7.7047756897752265e+01 7.7400849454607751e+01 0 0 0
3255 1 7.5130533100583430e-02 7.7474389542322157e+01 8.0284653728566695e+01 8.4647874993379759e+01 0 1 0
5529 3 -1.6944788158320345e-01 8.1992015421247345e+01 7.8755409849952230e+01 8.5440685276432362e+01 0 1 0
3122 2 1.3518393027589035e-01 7.7571168623666537e+01 7.6791919757578682e+01 7.9280717290218831e+01 0 0 0
5528 2 1.2345248619451779e-01 8.2843196312987089e+01 7.8077287439044937e+01 8.5899460884703998e+01 0 1 0
4788 3 -1.7707670360196545e-01 8.2797439850980624e+01 8.1412788344072837e+01 7.9112165884206291e+01 0 0 0
4763 2 -8.3855393470048320e-02 8.2833482517554401e+01 8.1834517913054995e+01 8.2605328163615980e+01 0 0 0
3239 1 1.1637591487605445e-01 8.1941090960950902e+01 7.7872686986201202e+01 7.7857159569032063e+01 0 1 0
3252 1 8.3440733890822308e-02 7.7035191643536763e+01 7.9742342421022286e+01 8.2359852186916953e+01 0 1 0
3240 1 8.0005782280145418e-02 8.0569555904231791e+01 7.7014422475745334e+01 7.8424577491875169e+01 0 1 0
3260 2 1.1654133340503227e-01 8.2918497984770170e+01 7.8585731631204766e+01 8.0287036840497407e+01 0 1 0
3066 2 -1.0809090023858604e-01 7.7953824031241425e+01 8.2741232955684566e+01 7.8044311702086532e+01 0 0 0
5046 1 9.2891301242810448e-02 7.6680637278970337e+01 8.2270808654269857e+01 8.4385510763627082e+01 1 0 0
3244 1 6.9692885876144181e-02 8.0254664882747846e+01 7.6665936330901232e+01 8.0886262028845451e+01 0 1 0
3245 1 9.0125997961153323e-02 8.1736704079089520e+01 7.6778849305471212e+01 8.1662354649700276e+01 0 1 0
4761 1 1.1481062456947598e-01 8.3272625231464204e+01 8.2308403787006156e+01 8.4735582938395339e+01 0 0 0
4720 3 -1.8256560758692048e-01 8.3590380801142999e+01 8.0464992534401830e+01 7.7598536578444879e+01 0 0 0
4789 2 1.2218076285982959e-01 8.3492003874144700e+01 8.0521749624308896e+01 8.2504544745352575e+01 0 0 0
4790 3 -1.4809104563896755e-01 8.4004655357853650e+01 7.9477230049550940e+01 8.2360876958688948e+01 0 0 0
3261 3 -1.2933398971862109e-01 8.4011071150067764e+01 7.8907685691746565e+01 8.0605131871932215e+01 0 1 0
5439 1 8.8019385151482471e-02 8.7827055230155736e+01 7.8275031822722411e+01 8.4312564825656636e+01 0 1 0
4719 2 1.0319986181436649e-01 8.4433310317845709e+01 8.1086268054156690e+01 7.7085320927701048e+01 0 0 0
5467 3 -1.5266876247392808e-01 8.7323277057172731e+01 7.9147256289649576e+01 8.1377903568485038e+01 0 1 0
5466 2 9.8513009404559815e-02 8.8326592060058829e+01 7.9086780325308737e+01 8.1964963359213456e+01 0 1 0
4771 1 1.5246691719944119e-01 8.5716431634579067e+01 8.1399234664196442e+01 8.0974383266034422e+01 0 0 0
4776 1 9.9164690001172257e-02 8.8255788764342157e+01 8.1596176654642989e+01 8.1658383165384677e+01 0 0 0
5426 3 -2.0824977608359360e-01 8.7276775588695202e+01 7.8641328809712633e+01 7.9449083888059533e+01 0 1 0
5438 2 -8.0802130001467506e-02 8.8241200468017908e+01 7.9157563462596897e+01 8.4779540377799435e+01 0 1 0
5464 2 1.1807897880417752e-01 8.7297700396725318e+01 8.0294606132041054e+01 8.4538380774637872e+01 0 1 0
5425 2 1.2148468002251112e-01 8.8231055727514246e+01 7.7992538011464788e+01 7.9238709041137412e+01 0 1 0
5465 3 -2.0266621247292060e-01 8.6533179041222041e+01 8.1174325528951243e+01 8.4392847712531747e+01 0 1 0
4692 1 8.9781380110638617e-02 8.6747618358044036e+01 8.0773269834257903e+01 7.7927483705206114e+01 0 0 0
4772 1 9.9608851294612721e-02 8.5981713735335816e+01 8.2279747830758339e+01 7.9456082329304408e+01 0 0 0
3234 1 1.0340394934455779e-01 8.4038960720655837e+01 7.7427265412425214e+01 7.8264807894728605e+01 0 1 0
4777 1 7.9510242973949027e-02 8.8442661585891031e+01 8.2245160915010743e+01 8.0175650756844774e+01 0 0 0
4770 2 -1.5003587601680390e-01 8.5726508881253608e+01 8.2410809723520586e+01 8.0484881124579104e+01 0 0 0
4689 1 8.0290545759830800e-02 8.8691244103651627e+01 8.1961564933240197e+01 7.7649290329826556e+01 0 0 0
1738 3 -2.1440266767322663e-01 8.5289346730912371e+01 8.1080188900742911e+01 8.5756818787347811e+01 0 0 0
4690 2 -1.1367108353227252e-01 8.6813011396522938e+01 8.1057149009568107e+01 7.6893431335757015e+01 0 0 0
4787 2 1.2699314151725430e-01 8.3482623514730420e+01 8.2084334093991714e+01 7.9789934843531938e+01 0 0 0
4775 2 -1.3421325613745225e-01 8.8248238692951844e+01 8.2534675113212444e+01 8.1149134945935003e+01 0 0 0
5525 2 -2.7673151406432739e-01 8.5059388257866217e+01 7.7239361677297964e+01 8.5321791630794010e+01 0 1 0
4688 2 -1.6420857054173124e-01 8.8131839588673728e+01 8.2003942236354604e+01 7.6766540482851610e+01 0 0 0
5527 1 1.4809822444190213e-01 8.5427013826100008e+01 7.8208323096623246e+01 8.5190803024371917e+01 0 1 0
5526 1 1.7841432505953320e-01 8.4533874594346628e+01 7.7003585753024083e+01 8.4405600981976164e+01 0 1 0
4694 1 8.3577591960367029e-02 8.5559433967227449e+01 8.2936812828150323e+01 7.6936775816796938e+01 0 0 0
5413 2 -8.7165789603311242e-02 8.9426229808698139e+01 7.7178157344348278e+01 7.8993047020748719e+01 0 1 0
5406 1 7.1519704273270215e-02 8.7540695014284992e+01 7.8267188408845868e+01 7.6797520869976623e+01 0 1 0
4767 1 9.3531841179634950e-02 8.4830933976084708e+01 8.2728520658286342e+01 8.2725957337637311e+01 0 0 0
4765 2 -1.0681378476592554e-01 8.3898605612889838e+01 8.2943230341568068e+01 8.2165492956133122e+01 0 0 0
4768 2 -6.8969287265866389e-02 8.4285145020892585e+01 8.2932239865776765e+01 8.0669347959849290e+01 0 0 0
5444 1 3.8281135440858642e-02 8.7668376947084298e+01 7.6704276762006288e+01 8.6163527636100170e+01 0 1 0
5447 1 9.2022526705280105e-02 9.0805400309450150e+01 7.7218270150689278e+01 8.6202639530801918e+01 0 1 0
405 1 1.0577887539684941e-01 9.5867109591019585e+01 7.7458562591877623e+01 8.5113443078745533e+01 0 0 0
5445 2 -1.1895760655545380e-01 8.9897214390199736e+01 7.6737211671323450e+01 8.5805967969386217e+01 0 1 0
5435 2 -1.4171036775948453e-01 8.9621231537877406e+01 7.9622617562480528e+01 8.4064949166080822e+01 0 1 0
5433 2 -5.5416741721114049e-02 8.9633448341544209e+01 7.8972670524317294e+01 8.2690842029180828e+01 0 1 0
5437 1 6.8461848990040514e-02 8.9612688717443319e+01 8.0696829782102881e+01 8.4005934733656744e+01 0 1 0
5434 1 4.4510880118315443e-02 8.9811570725420424e+01 7.7909039385806736e+01 8.2904668561582099e+01 0 1 0
5446 1 6.7677810718281439e-02 8.9893347994106719e+01 7.6868453175890849e+01 8.4719931280700180e+01 0 1 0
5417 1 8.5488110341375032e-02 9.1272883265951421e+01 7.6929005511303316e+01 8.0201912651446193e+01 0 1 0
1661 2 1.3791588985804490e-01 9.3062707605482501e+01 8.1951553808707686e+01 7.6574272914670033e+01 0 0 1
5412 1 1.0631572736945695e-01 9.0179715973163255e+01 7.8731159462520822e+01 7.7646979010896274e+01 0 1 0
410 1 1.0420979854707030e-01 9.5424159446404815e+01 7.8469942688911289e+01 8.2712879908706512e+01 0 0 0
5410 2 -1.4715613708639794e-01 9.0150182197951821e+01 7.7639544099959267e+01 7.7719021141822850e+01 0 1 0
4782 1 5.9454261585811859e-02 9.0079429271431948e+01 8.2574220248761250e+01 8.3538160401787820e+01 0 0 0
5436 1 1.0968764103710596e-01 9.0488267094807071e+01 7.9367953917126769e+01 8.4610441302033038e+01 0 1 0
5419 1 8.9142682100960824e-02 8.9908166950105070e+01 7.9722706552751987e+01 7.9871940006371986e+01 0 1 0
5415 2 -1.1357978157323768e-01 9.0321938812469611e+01 7.7466649479616322e+01 8.0221691957234626e+01 0 1 0
419 3 -2.2689958352521250e-01 9.3133569534677676e+01 7.9284987694291416e+01 8.4859269003285760e+01 0 0 0
4216 3 -2.1968793466803338e-01 9.4183063042748273e+01 7.8258293155460777e+01 8.0168598276154526e+01 0 1 1
5418 2 -7.1689087443693386e-02 9.0605494701671930e+01 7.9038005177690167e+01 8.0300591742855687e+01 0 1 0
5422 1 6.6992009937387215e-02 9.0951891571083962e+01 8.0584821465903545e+01 8.2046047485069153e+01 0 1 0
5420 2 -1.2015233174924705e-01 9.0793101469393065e+01 7.9483033497186753e+01 8.1835089771367933e+01 0 1 0
5423 2 1.0666649910133190e-01 9.1995067711686005e+01 7.9213070248374763e+01 7.9790135318064642e+01 0 1 0
5424 3 -1.2890680431204052e-01 9.3083442885321944e+01 7.9400528075584376e+01 7.9362211006061870e+01 0 1 0
418 2 1.3135346140770654e-01 9.4290214275318363e+01 7.9385694932974346e+01 8.4694195167205933e+01 0 0 0
5421 1 8.0024282928920151e-02 9.1748541763946861e+01 7.9077285334276979e+01 8.2200741285668059e+01 0 1 0
413 2 -2.5930550659931562e-01 9.4375102045356854e+01 8.1217134357248298e+01 8.2483702579713025e+01 0 0 0
426 1 1.3058117276063252e-01 9.3640333799282558e+01 8.0490217815912118e+01 8.2351573144697468e+01 0 0 0
414 1 1.4359328424605139e-01 9.4235344989075671e+01 8.1692517151681642e+01 8.3478230440133430e+01 0 0 0
415 1 1.4146126428447575e-01 9.4151748779155440e+01 8.1946346920599069e+01 8.1691211100088182e+01 0 0 0
4215 2 1.3823726903620212e-01 9.5130727225733949e+01 7.8084857099176972e+01 7.9476894222262231e+01 0 1 1
5411 1 1.3422264781068349e-01 9.1197582883742186e+01 7.7394979854482358e+01 7.7701915556530665e+01 0 1 0
406 2 -8.4832110580693523e-02 9.5741455978581570e+01 7.9544929060618514e+01 8.4512791578110367e+01 0 0 0
411 2 -4.2872557322937072e-02 9.5819445248157820e+01 8.0592899979470928e+01 8.2317330237176449e+01 0 0 0
4784 3 -1.9454949903031574e-01 9.1633193473256483e+01 8.2900914770566459e+01 8.0390398393997046e+01 0 0 0
1732 3 -2.0830029610547812e-01 9.2581663465101684e+01 8.0734686307946674e+01 8.5912047341996214e+01 0 0 0
5416 1 7.8332089228691559e-02 8.9846596307768792e+01 7.7102016227707765e+01 8.1162371875264569e+01 0 1 0
1662 3 -1.3218229628578243e-01 9.2953649720393287e+01 8.0817343282000294e+01 7.6839671981439977e+01 0 0 1
4792 3 -1.9493006867054299e-01 7.9106375847956116e+01 8.3065713844074395e+01 8.3279059328618303e+01 0 0 0
4791 2 1.3005910637920068e-01 8.0196628374293510e+01 8.3268180601858205e+01 8.3650606414793202e+01 0 0 0
3068 1 7.7213789375886577e-02 7.7566850041767154e+01 8.3066497660537280e+01 7.7089037710248647e+01 0 0 0
1489 3 -1.8137282014476985e-01 7.8306858446865263e+01 8.6398426777010030e+01 8.6230004278338214e+01 0 0 0
1468 1 5.4739266224906699e-02 7.6909070560354408e+01 8.9049396204160189e+01 8.1811317106750494e+01 0 0 0
1461 1 9.9548600504991674e-02 7.8603157517300332e+01 8.9481953771164683e+01 8.5575405777631985e+01 0 0 0
1484 2 1.0859757767493949e-01 8.0254652685741803e+01 8.9091559293576537e+01 8.2249793108634591e+01 0 0 0
4758 2 -7.3150658526632592e-02 8.1575192328264507e+01 8.3577202840322087e+01 8.4119218659297829e+01 0 0 0
3062 1 1.2696569631385399e-01 7.8921306201934172e+01 8.5121836170882574e+01 7.7010581258541109e+01 0 0 0
4685 3 -1.9130118665891305e-01 8.1536921525455199e+01 8.8386052417584409e+01 8.5086306724699327e+01 0 0 0
1462 2 -6.7312903714240327e-02 7.7405928777738751e+01 8.8023314352801805e+01 8.4334967860917601e+01 0 0 0
1466 1 8.9295101923299883e-02 7.7398242361302394e+01 8.6412061463435833e+01 8.2900355018149185e+01 0 0 0
1488 2 1.2773722771967169e-01 7.7921744902602896e+01 8.7125623134226117e+01 8.5386461934930963e+01 0 0 0
1467 2 -6.7401900039764567e-02 7.7362899931518598e+01 8.8127479454287780e+01 8.1654579639075365e+01 0 0 0
3065 1 1.3389754026110842e-01 7.7642775161600198e+01 8.4143276461277765e+01 7.9659478019130518e+01 0 0 0
4744 1 9.2687108521696149e-02 8.2544607010009656e+01 8.5848301075649374e+01 8.4882421589316237e+01 0 0 0
4759 1 8.0910806478646652e-02 8.1906240689999649e+01 8.4456577765753494e+01 8.3562094158641145e+01 0 0 0
1469 2 -1.5094778893259908e-01 7.8528063027292745e+01 8.8116795938706801e+01 8.0593984194399326e+01 0 0 0
3084 3 -1.7979830230725835e-01 8.0762916771286825e+01 8.4121069551597074e+01 7.9789628722601307e+01 0 0 0
3083 2 1.3490220310654638e-01 7.9674609990794139e+01 8.4030902338147285e+01 7.9342371898822208e+01 0 0 0
3063 1 9.2888345382624637e-02 7.8545100123291704e+01 8.6169303197588405e+01 7.8330277400234209e+01 0 0 0
1464 2 -1.5195260186713161e-01 7.7875782055276588e+01 8.7400446426804137e+01 8.3041901684055489e+01 0 0 0
4757 3 -2.0400557397663893e-01 8.1249518297326773e+01 8.5519723658558561e+01 8.0974859556308104e+01 0 0 0
4756 2 1.1594458755973494e-01 8.2168875766807233e+01 8.5964460606221579e+01 8.0424576930645898e+01 0 0 0
3061 2 -1.3956076346091109e-01 7.8222050156341837e+01 8.5238369751634494e+01 7.7805850406282275e+01 0 0 0
3064 2 -8.6261835219957061e-02 7.8323070304479174e+01 8.3974771208217845e+01 7.8821332552835159e+01 0 0 0
1470 1 1.1131911938568163e-01 7.9137726369544822e+01 8.7223821292213827e+01 8.0625387659274622e+01 0 0 0
1465 1 1.4683950835773399e-01 7.8943747359529269e+01 8.7318294541095341e+01 8.3007239776005136e+01 0 0 0
1471 1 1.1130555826542467e-01 7.8115269631357194e+01 8.8188313614680936e+01 7.9629302450785531e+01 0 0 0
4745 2 -1.3997875943681179e-01 8.1554043463595093e+01 8.3983131115064054e+01 8.5646169017692387e+01 0 0 0
4711 1 9.8892774120143051e-02 8.2256529341283496e+01 8.7192920276204973e+01 7.7979965402071471e+01 0 0 0
4743 2 -7.7317546941209486e-02 8.2486127368647729e+01 8.5283971731971519e+01 8.5800793193009596e+01 0 0 0
4747 1 1.0946745173429465e-01 8.0602528819135742e+01 8.4371585996931529e+01 8.6007044497426477e+01 0 0 0
1485 3 -2.1261411126859422e-01 8.0915151800840718e+01 8.8881412009513070e+01 8.3197496714831757e+01 0 0 0
1459 2 -1.2111440805055905e-01 7.7799485289090057e+01 8.9452663585767780e+01 8.4799971037711799e+01 0 0 0
4727 1 1.0432442224387958e-01 8.2748000604618014e+01 8.8541388036804108e+01 8.0010272228730457e+01 0 0 0
3059 2 -6.3470280061097145e-02 7.6840463041873079e+01 8.5479731258841227e+01 7.7178031642041304e+01 0 0 0
1518 3 -1.7662071777935998e-01 7.8724821372372432e+01 8.9460615625451581e+01 7.6803519282477865e+01 0 0 0
4712 1 1.0878405248890710e-01 8.2454258301476415e+01 8.5511982602450956e+01 7.7955215886870121e+01 0 0 0
4710 2 -1.3816949186534980e-01 8.2985564954883671e+01 8.6425236617527489e+01 7.8166202262550286e+01 0 0 0
4684 2 1.2165491805581395e-01 8.1943621530923423e+01 8.9382251509010914e+01 8.5551445933727692e+01 0 0 0
1472 2 -7.3818451636368757e-02 7.9462835494536307e+01 8.9315413622378756e+01 8.1021604874262110e+01 0 0 0
1473 1 9.9717633771134268e-02 8.0060210120420095e+01 8.9468142344863139e+01 8.0139496956012152e+01 0 0 0
4781 1 9.3044347333883753e-02 8.8594420509900445e+01 8.3455715529657397e+01 8.3713641790137999e+01 0 0 0
4778 2 -7.4886245654932071e-02 8.9372045587231483e+01 8.3564179346197221e+01 8.1653465177566730e+01 0 0 0
983 1 1.0713239409811648e-01 8.9213682579980258e+01 8.9195548630492297e+01 7.9427456806483860e+01 0 0 0
4739 1 6.5730545233941395e-02 8.4899085440042001e+01 8.6756820070231313e+01 8.5939381545079698e+01 0 0 0
4766 1 5.8048751253488309e-02 8.3586671547090873e+01 8.3936191999352900e+01 8.2402226976194854e+01 0 0 0
4740 2 -1.2842588435220287e-01 8.3948346459936857e+01 8.4761402436610751e+01 8.6130119716992212e+01 0 0 0
4729 1 1.0367452219406120e-01 8.3085726888243343e+01 8.7597335804141707e+01 8.2388127821116669e+01 0 0 0
982 1 1.3888592871088007e-01 8.7586388335646220e+01 8.8796955761952916e+01 7.8982562706147448e+01 0 0 0
981 2 -2.4434599847056776e-01 8.8228892897661467e+01 8.8947066517620271e+01 7.9823170598896866e+01 0 0 0
4741 1 7.8159605814495367e-02 8.4175543889989825e+01 8.3781370540130283e+01 8.5728086677637492e+01 0 0 0
4773 2 -6.4387470581133130e-02 8.6843423066558501e+01 8.3246260409777562e+01 8.1258614572904648e+01 0 0 0
4774 1 5.7508094498052026e-02 8.6585369521289692e+01 8.3386674399434241e+01 8.2343182584003117e+01 0 0 0
4723 2 -7.5213538114573375e-02 8.3330855374232797e+01 8.6479828519004471e+01 7.9700761845018079e+01 0 0 0
4736 1 3.8393052904719401e-02 8.3910658249945328e+01 8.5728363708532754e+01 8.3606362430596405e+01 0 0 0
4725 2 -1.3127926180228019e-01 8.3597331268047384e+01 8.7909486992305048e+01 8.0190207564574507e+01 0 0 0
4753 3 -1.7567118321148203e-01 8.7993329033676474e+01 8.7555778607550877e+01 8.4358708905935927e+01 0 0 0
4769 1 7.4472529072264787e-02 8.4121943191906780e+01 8.3896004500772918e+01 8.0304758236523057e+01 0 0 0
4726 1 1.0245086119043970e-01 8.4384604063820973e+01 8.8355966324395055e+01 7.9550934465025477e+01 0 0 0
4728 2 -8.3560709719331577e-02 8.3918885097973998e+01 8.8021049151217483e+01 8.1752611899877195e+01 0 0 0
4709 1 7.9653846447904575e-02 8.4604706437316494e+01 8.7690683688607209e+01 7.7380628743433419e+01 0 0 0
4724 1 8.1521973862727262e-02 8.4221684691724192e+01 8.5857684953479634e+01 7.9894008619264397e+01 0 0 0
4708 2 -7.3018722444289294e-02 8.4288290133690722e+01 8.6644906857750385e+01 7.7337348441754528e+01 0 0 0
4713 2 1.1784989335742052e-01 8.5393788543761076e+01 8.5676882130080230e+01 7.7754590751429618e+01 0 0 0
4714 3 -2.4964738998800204e-01 8.6244210073832662e+01 8.4953881768375538e+01 7.8085353819336376e+01 0 0 0
4734 1 7.4547521845070575e-02 8.4805608404775882e+01 8.8123775932202832e+01 8.4045865769443139e+01 0 0 0
4735 2 -8.7860014721661703e-02 8.4921132747761149e+01 8.5940876090591885e+01 8.3968118446641853e+01 0 0 0
4785 2 1.2540862562686489e-01 8.6912163441150099e+01 8.4500149639756501e+01 8.0472976238656315e+01 0 0 0
4733 2 -7.4489070142264871e-02 8.5457504176284701e+01 8.7354254458465078e+01 8.3626183709965474e+01 0 0 0
4752 2 1.1921087118423471e-01 8.6853183579694033e+01 8.7470596802989547e+01 8.4051352501168196e+01 0 0 0
4786 3 -2.3675003832960176e-01 8.6922502443721271e+01 8.5474028871898170e+01 7.9843289853491186e+01 0 0 0
4731 1 9.1360414718126254e-02 8.5509943728061302e+01 8.6441949787310691e+01 8.1660912352455114e+01 0 0 0
4730 2 -1.2927776634763311e-01 8.5364333030159472e+01 8.7416136123606847e+01 8.2087264279214125e+01 0 0 0
4737 1 5.0513451305242457e-02 8.5469788271374100e+01 8.5197147731912807e+01 8.3329681979353097e+01 0 0 0
994 1 1.2252986756150439e-01 8.8273922277127483e+01 8.7926768898807680e+01 8.0264548452981543e+01 0 0 0
4704 1 8.0377425466256119e-02 8.3883610642276523e+01 8.4295070043600703e+01 7.6694683226631852e+01 0 0 0
4827 3 -2.0135367407144975e-01 8.9038904907016075e+01 8.6843613505639837e+01 8.2957548786991666e+01 0 0 0
4738 2 -7.1317032230684571e-02 8.5024640980338233e+01 8.5748260397614700e+01 8.5554870558434303e+01 0 0 0
4779 1 9.5338421924103384e-02 8.9018795643077794e+01 8.4586973045998064e+01 8.1432924555476376e+01 0 0 0
4732 1 9.5031460400791690e-02 8.6165996274777171e+01 8.7991072918598931e+01 8.1693693873189460e+01 0 0 0
4750 2 1.0775628738748527e-01 8.6386118614058745e+01 8.5441669938557609e+01 8.6025356394211343e+01 0 0 0
4754 2 1.3681438049619785e-01 8.4010565213068006e+01 8.9459643545150172e+01 8.2070523988463336e+01 0 0 0
1660 3 -1.7305355291685970e-01 9.2547136131145294e+01 8.4383891267861230e+01 7.9550941479338107e+01 0 0 1
4796 1 9.1248597445121871e-02 9.2037726955336197e+01 8.3562670330189746e+01 8.3136011901766580e+01 0 0 0
4793 2 -8.3441079951352706e-02 9.0313072383179602e+01 8.4679606275723700e+01 8.3787943956097706e+01 0 0 0
4794 1 1.0318787464369281e-01 9.0253334746690186e+01 8.4598328634705211e+01 8.4849761613321533e+01 0 0 0
4824 2 1.3427902736016722e-01 9.2849533504628738e+01 8.4798168154771545e+01 8.5581534880787615e+01 0 0 0
4823 3 -1.5613183240624512e-01 9.4383293114070256e+01 8.9402790165867955e+01 8.5795400426106738e+01 0 0 0
4821 3 -2.0373021755691267e-01 9.4531953967354724e+01 8.5672070209647586e+01 8.0967088201306410e+01 0 0 0
4783 2 9.5107204964669623e-02 9.0630210625135348e+01 8.3195991979820235e+01 8.0942787427068225e+01 0 0 0
1659 2 9.9660037336115226e-02 9.2159696833897030e+01 8.4761649877552500e+01 7.8500062756166955e+01 0 0 1
4780 2 -1.1917750322556561e-01 8.9536299727910333e+01 8.3456918269088462e+01 8.3230884831498102e+01 0 0 0
4822 2 9.6598847102901800e-02 9.4128946732486583e+01 8.8665434799241581e+01 8.4922611054476960e+01 0 0 0
4809 1 6.6258618155277005e-02 9.1754159269258039e+01 8.6656482405799935e+01 8.1988574459405115e+01 0 0 0
1658 1 7.2129939811639371e-02 9.0183715489979491e+01 8.6517448136835682e+01 7.8159922080815406e+01 0 0 1
1657 1 8.1916096706661307e-02 8.9533195625388217e+01 8.5048952403842137e+01 7.7474596575045325e+01 0 0 1
4795 2 -1.1754719172087186e-01 9.1760030752145795e+01 8.4600048759325560e+01 8.3247403182417159e+01 0 0 0
1655 1 5.9715011177944408e-02 9.2332099618868227e+01 8.6012830985970240e+01 7.6746637176645535e+01 0 0 1
4817 1 9.6383080068366961e-02 9.3477744155627818e+01 8.7026978203059585e+01 7.8041755498002900e+01 0 0 0
4800 2 -1.5719646571876766e-01 9.2653612262429846e+01 8.6828471481708760e+01 8.4518718157193049e+01 0 0 0
4801 1 1.1636866347921802e-01 9.1753460140612404e+01 8.7075378482185968e+01 8.4086969406991543e+01 0 0 0
4812 1 9.1343428157958789e-02 9.1424579620482632e+01 8.8963090300784415e+01 8.0562937705446430e+01 0 0 0
4798 2 -7.7727463445012357e-02 9.2813102326526348e+01 8.5293364431279770e+01 8.4194457986583842e+01 0 0 0
4804 1 9.0463162873866382e-02 9.4620366399804695e+01 8.7134013538934724e+01 8.3569995184986780e+01 0 0 0
4820 2 1.1949460998565577e-01 9.3658819671000956e+01 8.6410652846802307e+01 8.1215037542407003e+01 0 0 0
4797 1 9.1511032407516790e-02 9.1838507847244841e+01 8.4957482649800184e+01 8.2174265648476137e+01 0 0 0
4828 1 1.0708093595054045e-01 9.2568899351281374e+01 8.8437988308477173e+01 7.7512003122861998e+01 0 0 0
4806 1 1.0418740328676923e-01 9.2219794996946717e+01 8.9055374376029221e+01 8.3002073442252993e+01 0 0 0
4816 1 1.0119927923764216e-01 9.4307891049637846e+01 8.8566027572446814e+01 7.7603747756862901e+01 0 0 0
4814 1 1.1675589224018654e-01 9.4183809603349204e+01 8.8216839346526655e+01 8.0163227448130144e+01 0 0 0
4808 2 -7.2336146944992102e-02 9.2527689362063654e+01 8.7306963123683943e+01 8.1552645644795433e+01 0 0 0
4813 2 -6.4816517493240910e-02 9.3357663456453679e+01 8.8622838381856823e+01 7.9573988869073290e+01 0 0 0
4807 1 7.0855428516581442e-02 9.3723137383021282e+01 8.9065156405416815e+01 8.2000773002931609e+01 0 0 0
4803 2 -7.3896927049250744e-02 9.3769573448313196e+01 8.7717753854340785e+01 8.3824304286334808e+01 0 0 0
1656 2 -1.1829461654130408e-01 9.0227504842788392e+01 8.5882983958901249e+01 7.7299176046087439e+01 0 0 1
4815 2 -2.0958017675192567e-01 9.3399609377212769e+01 8.8134697674997454e+01 7.8129645513880789e+01 0 0 0
4802 1 1.1987283995409460e-01 9.2573115631196117e+01 8.7012774991913744e+01 8.5585766889598972e+01 0 0 0
4826 2 1.1786333533213368e-01 8.9587253322743038e+01 8.5883393597538856e+01 8.3347736931948191e+01 0 0 0
4811 1 6.8673244354167134e-02 9.1476492395388732e+01 8.7556939856441190e+01 7.9556940010839369e+01 0 0 0
4810 2 -1.1756420892927069e-01 9.2069114545936458e+01 8.8137389570259913e+01 8.0264010880137391e+01 0 0 0
4805 2 -1.2320204905189913e-01 9.3011672182376259e+01 8.8435701930426859e+01 8.2614438805277629e+01 0 0 0
4799 1 9.5268277919634464e-02 9.3805045602209290e+01 8.5216200082841425e+01 8.3702912584677478e+01 0 0 0
1654 2 -7.8975123898202590e-02 9.1711409952428795e+01 8.5275809148316597e+01 7.7196988295094513e+01 0 0 1
1650 1 1.1106768608368447e-01 9.3834905137373113e+01 8.3780114274475807e+01 7.6919056725872309e+01 0 0 1
1653 1 1.0647222434874909e-01 9.1008890815637287e+01 8.3304319994660503e+01 7.6742387165413376e+01 0 0 1
2673 2 -6.1446123855646115e-02 7.8629716555942679e+01 8.1858805643548123e+01 8.9533915655784341e+01 0 0 0
2674 1 5.5101242022919071e-02 7.8957174189950280e+01 8.1521796800556132e+01 9.0549788407599436e+01 0 0 0
3827 3 -1.8793914270475817e-01 8.2120939526371401e+01 7.9679989071287139e+01 9.4628716694579339e+01 0 0 0
2692 2 1.1055348132711715e-01 7.8957654119294276e+01 8.0826504132772840e+01 8.8555571506474962e+01 0 0 0
2687 1 1.1918014741474298e-01 7.8465895024257009e+01 7.8790257100846560e+01 9.3262172929365846e+01 0 0 0
1979 3 -1.6836072389403048e-01 8.0334940725997043e+01 7.8665866760976101e+01 8.8526144096627988e+01 1 1 0
2693 3 -1.9445079778313920e-01 7.9259453866212297e+01 7.9976619539603590e+01 8.7785774070004067e+01 0 0 0
2685 2 -2.2816300431168640e-01 7.8230277064175624e+01 7.9742651353660662e+01 9.2794914781958070e+01 0 0 0
2698 1 1.0442473510993541e-01 7.8909530052783182e+01 8.0014270362514054e+01 9.1947562828605896e+01 0 0 0
2675 2 -1.2384305080757917e-01 7.7121086392742612e+01 8.2132139338055381e+01 8.9461254392802005e+01 0 0 0
2686 1 1.0412174983992262e-01 7.8402534765774973e+01 8.0465336802403584e+01 9.3624276125952861e+01 0 0 0
1978 2 1.1672450862669051e-01 7.9486546482099357e+01 7.7887858417106628e+01 8.8664124563424977e+01 1 1 0
2669 1 9.7634547675306882e-02 8.0105893142673224e+01 8.2901128442107449e+01 9.1147736118410577e+01 0 0 0
2679 1 5.8323008846574265e-02 7.7061139749891765e+01 8.0007107128566744e+01 9.0013572766949892e+01 0 0 0
1977 1 9.9302531729356852e-02 7.7691523639610281e+01 7.7205190309114130e+01 8.6728852986417962e+01 1 1 0
1971 1 5.1879243784868703e-02 7.7051841750741005e+01 7.7747666859747213e+01 9.0282478828324571e+01 1 1 0
3826 2 9.4829861110652863e-02 8.1473186299611754e+01 8.0066463727436428e+01 9.5544264309717732e+01 0 0 0
3818 1 8.1305891671366703e-02 7.8770166390540282e+01 8.0732481783694027e+01 9.5482526024412380e+01 0 0 0
1972 1 9.6201169016968319e-02 7.8613632428345099e+01 7.7333008828067989e+01 9.0990487368053721e+01 1 1 0
454 3 -2.6059049667738221e-01 8.0083719474770106e+01 7.6571639803298794e+01 9.3595238467570155e+01 0 0 0
2683 2 -4.1286872530738268e-02 7.6707991356121056e+01 7.9782007324859748e+01 9.2457974980942112e+01 0 0 0
1970 2 -1.2258558393967889e-01 7.7818555193339037e+01 7.7003518537759177e+01 9.0308935967605976e+01 1 1 0
2681 1 9.4377949070902536e-02 7.6935284803484848e+01 8.1936791277317027e+01 9.2170035579334183e+01 0 0 0
1973 2 -5.6343289303267846e-02 7.8354886011347332e+01 7.6893738258614334e+01 8.8830506354379793e+01 1 1 0
2695 3 -2.0982744665151457e-01 8.2713674714973976e+01 8.3023733316878406e+01 8.9229267459589821e+01 0 0 0
1975 2 -2.1253759643502562e-01 7.7203019956167111e+01 7.7029745185705877e+01 8.7724504102169035e+01 1 1 0
2677 1 9.1884051540995548e-02 7.6804294195173114e+01 8.2211341244529521e+01 8.8389073768133542e+01 0 0 0
1976 1 7.3932515322973708e-02 7.6616862815074356e+01 7.7940712470847757e+01 8.7910674366990804e+01 1 1 0
538 2 -8.5185271135995513e-02 8.5046594139785128e+01 8.1403901481449694e+01 9.5944775963311216e+01 0 0 0
540 2 -1.1690394913199956e-01 8.6482216755016253e+01 8.1090804725414571e+01 9.5451210724634294e+01 0 0 0
1740 3 -1.5661967018942205e-01 8.3442444080701051e+01 8.1975196386808307e+01 9.0569159273802285e+01 0 0 0
565 3 -1.4637317555876328e-01 8.3271308461941203e+01 8.1006366360935402e+01 9.3996746991507635e+01 0 0 0
430 2 -1.3900464445698701e-01 8.5972647072027712e+01 7.7044069286610807e+01 9.2694894813989762e+01 0 0 0