# V. Simonka, IuE TU Wien, (2016)
# Initial structure of 4H-SiC for molecular dynamics with lammps.

9202 atoms
3 atom types

-13.9645 29.3695 xlo xhi
-0.1 27.7133 ylo yhi
-252.603 89.3011 zlo zhi

Masses

1 28.0855 
2 12.0107 
3 16.0000 

Atoms

1 1 0 0 0 0
2 1 0 -1.5405e-05 1.77883 2.79637
3 1 0 -5.22312e-13 -9.04671e-13 5.03999
4 1 0 1.54052 0.889399 7.83636
5 1 0 -1.04496e-12 -1.80992e-12 10.0832
6 1 0 -1.5405e-05 1.77883 12.8796
7 1 0 -1.56727e-12 -2.71459e-12 15.1232
8 1 0 1.54052 0.889399 17.9196
9 1 0 -2.08992e-12 -3.61984e-12 20.1664
10 1 0 -1.5405e-05 1.77883 22.9628
11 1 0 -2.61223e-12 -4.52451e-12 25.2064
12 1 0 1.54052 0.889399 28.0028
13 1 0 -3.13487e-12 -5.42976e-12 30.2496
14 1 0 -1.5405e-05 1.77883 33.046
15 1 0 -3.65719e-12 -6.33443e-12 35.2896
16 1 0 1.54052 0.889399 38.086
17 1 0 -4.17983e-12 -7.23968e-12 40.3328
18 1 0 -1.5405e-05 1.77883 43.1292
19 1 0 -4.70215e-12 -8.14435e-12 45.3728
20 1 0 1.54052 0.889399 48.1692
21 1 0 -5.22479e-12 -9.0496e-12 50.416
22 1 0 -1.5405e-05 1.77883 53.2124
23 1 0 -5.7471e-12 -9.95428e-12 55.456
24 1 0 1.54052 0.889399 58.2524
25 1 0 -6.26975e-12 -1.08595e-11 60.4992
26 1 0 -1.5405e-05 1.77883 63.2956
27 1 0 -6.79206e-12 -1.17642e-11 65.5392
28 1 0 1.54052 0.889399 68.3356
29 1 0 -7.31471e-12 -1.26694e-11 70.5824
30 1 0 -1.5405e-05 1.77883 73.3788
31 1 0 -7.83702e-12 -1.35741e-11 75.6224
32 1 0 1.54052 0.889399 78.4188
33 1 0 -8.35967e-12 -1.44794e-11 80.6656
34 1 0 -1.5405e-05 1.77883 83.462
35 1 0 -8.88198e-12 -1.5384e-11 85.7056
36 1 0 1.54052 0.889399 88.502
37 1 0 -1.5405 2.66822 0
38 1 0 -1.54052 4.44705 2.79637
39 1 0 -1.5405 2.66822 5.03999
40 1 0 1.5405e-05 3.55762 7.83636
41 1 0 -1.5405 2.66822 10.0832
42 1 0 -1.54052 4.44705 12.8796
43 1 0 -1.5405 2.66822 15.1232
44 1 0 1.5405e-05 3.55762 17.9196
45 1 0 -1.5405 2.66822 20.1664
46 1 0 -1.54052 4.44705 22.9628
47 1 0 -1.5405 2.66822 25.2064
48 1 0 1.5405e-05 3.55762 28.0028
49 1 0 -1.5405 2.66822 30.2496
50 1 0 -1.54052 4.44705 33.046
51 1 0 -1.5405 2.66822 35.2896
52 1 0 1.5405e-05 3.55762 38.086
53 1 0 -1.5405 2.66822 40.3328
54 1 0 -1.54052 4.44705 43.1292
55 1 0 -1.5405 2.66822 45.3728
56 1 0 1.5405e-05 3.55762 48.1692
57 1 0 -1.5405 2.66822 50.416
58 1 0 -1.54052 4.44705 53.2124
59 1 0 -1.5405 2.66822 55.456
60 1 0 1.5405e-05 3.55762 58.2524
61 1 0 -1.5405 2.66822 60.4992
62 1 0 -1.54052 4.44705 63.2956
63 1 0 -1.5405 2.66822 65.5392
64 1 0 1.5405e-05 3.55762 68.3356
65 1 0 -1.5405 2.66822 70.5824
66 1 0 -1.54052 4.44705 73.3788
67 1 0 -1.5405 2.66822 75.6224
68 1 0 1.5405e-05 3.55762 78.4188
69 1 0 -1.5405 2.66822 80.6656
70 1 0 -1.54052 4.44705 83.462
71 1 0 -1.5405 2.66822 85.7056
72 1 0 1.5405e-05 3.55762 88.502
73 1 0 -3.081 5.33645 0
74 1 0 -3.08102 7.11527 2.79637
75 1 0 -3.081 5.33645 5.03999
76 1 0 -1.54048 6.22585 7.83636
77 1 0 -3.081 5.33645 10.0832
78 1 0 -3.08102 7.11527 12.8796
79 1 0 -3.081 5.33645 15.1232
80 1 0 -1.54048 6.22585 17.9196
81 1 0 -3.081 5.33645 20.1664
82 1 0 -3.08102 7.11527 22.9628
83 1 0 -3.081 5.33645 25.2064
84 1 0 -1.54048 6.22585 28.0028
85 1 0 -3.081 5.33645 30.2496
86 1 0 -3.08102 7.11527 33.046
87 1 0 -3.081 5.33645 35.2896
88 1 0 -1.54048 6.22585 38.086
89 1 0 -3.081 5.33645 40.3328
90 1 0 -3.08102 7.11527 43.1292
91 1 0 -3.081 5.33645 45.3728
92 1 0 -1.54048 6.22585 48.1692
93 1 0 -3.081 5.33645 50.416
94 1 0 -3.08102 7.11527 53.2124
95 1 0 -3.081 5.33645 55.456
96 1 0 -1.54048 6.22585 58.2524
97 1 0 -3.081 5.33645 60.4992
98 1 0 -3.08102 7.11527 63.2956
99 1 0 -3.081 5.33645 65.5392
100 1 0 -1.54048 6.22585 68.3356
101 1 0 -3.081 5.33645 70.5824
102 1 0 -3.08102 7.11527 73.3788
103 1 0 -3.081 5.33645 75.6224
104 1 0 -1.54048 6.22585 78.4188
105 1 0 -3.081 5.33645 80.6656
106 1 0 -3.08102 7.11527 83.462
107 1 0 -3.081 5.33645 85.7056
108 1 0 -1.54048 6.22585 88.502
109 1 0 -4.6215 8.00467 0
110 1 0 -4.62152 9.7835 2.79637
111 1 0 -4.6215 8.00467 5.03999
112 1 0 -3.08098 8.89407 7.83636
113 1 0 -4.6215 8.00467 10.0832
114 1 0 -4.62152 9.7835 12.8796
115 1 0 -4.6215 8.00467 15.1232
116 1 0 -3.08098 8.89407 17.9196
117 1 0 -4.6215 8.00467 20.1664
118 1 0 -4.62152 9.7835 22.9628
119 1 0 -4.6215 8.00467 25.2064
120 1 0 -3.08098 8.89407 28.0028
121 1 0 -4.6215 8.00467 30.2496
122 1 0 -4.62152 9.7835 33.046
123 1 0 -4.6215 8.00467 35.2896
124 1 0 -3.08098 8.89407 38.086
125 1 0 -4.6215 8.00467 40.3328
126 1 0 -4.62152 9.7835 43.1292
127 1 0 -4.6215 8.00467 45.3728
128 1 0 -3.08098 8.89407 48.1692
129 1 0 -4.6215 8.00467 50.416
130 1 0 -4.62152 9.7835 53.2124
131 1 0 -4.6215 8.00467 55.456
132 1 0 -3.08098 8.89407 58.2524
133 1 0 -4.6215 8.00467 60.4992
134 1 0 -4.62152 9.7835 63.2956
135 1 0 -4.6215 8.00467 65.5392
136 1 0 -3.08098 8.89407 68.3356
137 1 0 -4.6215 8.00467 70.5824
138 1 0 -4.62152 9.7835 73.3788
139 1 0 -4.6215 8.00467 75.6224
140 1 0 -3.08098 8.89407 78.4188
141 1 0 -4.6215 8.00467 80.6656
142 1 0 -4.62152 9.7835 83.462
143 1 0 -4.6215 8.00467 85.7056
144 1 0 -3.08098 8.89407 88.502
145 1 0 -6.162 10.6729 0
146 1 0 -6.16202 12.4517 2.79637
147 1 0 -6.162 10.6729 5.03999
148 1 0 -4.62148 11.5623 7.83636
149 1 0 -6.162 10.6729 10.0832
150 1 0 -6.16202 12.4517 12.8796
151 1 0 -6.162 10.6729 15.1232
152 1 0 -4.62148 11.5623 17.9196
153 1 0 -6.162 10.6729 20.1664
154 1 0 -6.16202 12.4517 22.9628
155 1 0 -6.162 10.6729 25.2064
156 1 0 -4.62148 11.5623 28.0028
157 1 0 -6.162 10.6729 30.2496
158 1 0 -6.16202 12.4517 33.046
159 1 0 -6.162 10.6729 35.2896
160 1 0 -4.62148 11.5623 38.086
161 1 0 -6.162 10.6729 40.3328
162 1 0 -6.16202 12.4517 43.1292
163 1 0 -6.162 10.6729 45.3728
164 1 0 -4.62148 11.5623 48.1692
165 1 0 -6.162 10.6729 50.416
166 1 0 -6.16202 12.4517 53.2124
167 1 0 -6.162 10.6729 55.456
168 1 0 -4.62148 11.5623 58.2524
169 1 0 -6.162 10.6729 60.4992
170 1 0 -6.16202 12.4517 63.2956
171 1 0 -6.162 10.6729 65.5392
172 1 0 -4.62148 11.5623 68.3356
173 1 0 -6.162 10.6729 70.5824
174 1 0 -6.16202 12.4517 73.3788
175 1 0 -6.162 10.6729 75.6224
176 1 0 -4.62148 11.5623 78.4188
177 1 0 -6.162 10.6729 80.6656
178 1 0 -6.16202 12.4517 83.462
179 1 0 -6.162 10.6729 85.7056
180 1 0 -4.62148 11.5623 88.502
181 1 0 -7.7025 13.3411 0
182 1 0 -7.70252 15.1199 2.79637
183 1 0 -7.7025 13.3411 5.03999
184 1 0 -6.16198 14.2305 7.83636
185 1 0 -7.7025 13.3411 10.0832
186 1 0 -7.70252 15.1199 12.8796
187 1 0 -7.7025 13.3411 15.1232
188 1 0 -6.16198 14.2305 17.9196
189 1 0 -7.7025 13.3411 20.1664
190 1 0 -7.70252 15.1199 22.9628
191 1 0 -7.7025 13.3411 25.2064
192 1 0 -6.16198 14.2305 28.0028
193 1 0 -7.7025 13.3411 30.2496
194 1 0 -7.70252 15.1199 33.046
195 1 0 -7.7025 13.3411 35.2896
196 1 0 -6.16198 14.2305 38.086
197 1 0 -7.7025 13.3411 40.3328
198 1 0 -7.70252 15.1199 43.1292
199 1 0 -7.7025 13.3411 45.3728
200 1 0 -6.16198 14.2305 48.1692
201 1 0 -7.7025 13.3411 50.416
202 1 0 -7.70252 15.1199 53.2124
203 1 0 -7.7025 13.3411 55.456
204 1 0 -6.16198 14.2305 58.2524
205 1 0 -7.7025 13.3411 60.4992
206 1 0 -7.70252 15.1199 63.2956
207 1 0 -7.7025 13.3411 65.5392
208 1 0 -6.16198 14.2305 68.3356
209 1 0 -7.7025 13.3411 70.5824
210 1 0 -7.70252 15.1199 73.3788
211 1 0 -7.7025 13.3411 75.6224
212 1 0 -6.16198 14.2305 78.4188
213 1 0 -7.7025 13.3411 80.6656
214 1 0 -7.70252 15.1199 83.462
215 1 0 -7.7025 13.3411 85.7056
216 1 0 -6.16198 14.2305 88.502
217 1 0 -9.243 16.0093 0
218 1 0 -9.24302 17.7882 2.79637
219 1 0 -9.243 16.0093 5.03999
220 1 0 -7.70248 16.8987 7.83636
221 1 0 -9.243 16.0093 10.0832
222 1 0 -9.24302 17.7882 12.8796
223 1 0 -9.243 16.0093 15.1232
224 1 0 -7.70248 16.8987 17.9196
225 1 0 -9.243 16.0093 20.1664
226 1 0 -9.24302 17.7882 22.9628
227 1 0 -9.243 16.0093 25.2064
228 1 0 -7.70248 16.8987 28.0028
229 1 0 -9.243 16.0093 30.2496
230 1 0 -9.24302 17.7882 33.046
231 1 0 -9.243 16.0093 35.2896
232 1 0 -7.70248 16.8987 38.086
233 1 0 -9.243 16.0093 40.3328
234 1 0 -9.24302 17.7882 43.1292
235 1 0 -9.243 16.0093 45.3728
236 1 0 -7.70248 16.8987 48.1692
237 1 0 -9.243 16.0093 50.416
238 1 0 -9.24302 17.7882 53.2124
239 1 0 -9.243 16.0093 55.456
240 1 0 -7.70248 16.8987 58.2524
241 1 0 -9.243 16.0093 60.4992
242 1 0 -9.24302 17.7882 63.2956
243 1 0 -9.243 16.0093 65.5392
244 1 0 -7.70248 16.8987 68.3356
245 1 0 -9.243 16.0093 70.5824
246 1 0 -9.24302 17.7882 73.3788
247 1 0 -9.243 16.0093 75.6224
248 1 0 -7.70248 16.8987 78.4188
249 1 0 -9.243 16.0093 80.6656
250 1 0 -9.24302 17.7882 83.462
251 1 0 -9.243 16.0093 85.7056
252 1 0 -7.70248 16.8987 88.502
253 1 0 -10.7835 18.6776 0
254 1 0 -10.7835 20.4564 2.79637
255 1 0 -10.7835 18.6776 5.03999
256 1 0 -9.24298 19.567 7.83636
257 1 0 -10.7835 18.6776 10.0832
258 1 0 -10.7835 20.4564 12.8796
259 1 0 -10.7835 18.6776 15.1232
260 1 0 -9.24298 19.567 17.9196
261 1 0 -10.7835 18.6776 20.1664
262 1 0 -10.7835 20.4564 22.9628
263 1 0 -10.7835 18.6776 25.2064
264 1 0 -9.24298 19.567 28.0028
265 1 0 -10.7835 18.6776 30.2496
266 1 0 -10.7835 20.4564 33.046
267 1 0 -10.7835 18.6776 35.2896
268 1 0 -9.24298 19.567 38.086
269 1 0 -10.7835 18.6776 40.3328
270 1 0 -10.7835 20.4564 43.1292
271 1 0 -10.7835 18.6776 45.3728
272 1 0 -9.24298 19.567 48.1692
273 1 0 -10.7835 18.6776 50.416
274 1 0 -10.7835 20.4564 53.2124
275 1 0 -10.7835 18.6776 55.456
276 1 0 -9.24298 19.567 58.2524
277 1 0 -10.7835 18.6776 60.4992
278 1 0 -10.7835 20.4564 63.2956
279 1 0 -10.7835 18.6776 65.5392
280 1 0 -9.24298 19.567 68.3356
281 1 0 -10.7835 18.6776 70.5824
282 1 0 -10.7835 20.4564 73.3788
283 1 0 -10.7835 18.6776 75.6224
284 1 0 -9.24298 19.567 78.4188
285 1 0 -10.7835 18.6776 80.6656
286 1 0 -10.7835 20.4564 83.462
287 1 0 -10.7835 18.6776 85.7056
288 1 0 -9.24298 19.567 88.502
289 1 0 -12.324 21.3458 0
290 1 0 -12.324 23.1246 2.79637
291 1 0 -12.324 21.3458 5.03999
292 1 0 -10.7835 22.2352 7.83636
293 1 0 -12.324 21.3458 10.0832
294 1 0 -12.324 23.1246 12.8796
295 1 0 -12.324 21.3458 15.1232
296 1 0 -10.7835 22.2352 17.9196
297 1 0 -12.324 21.3458 20.1664
298 1 0 -12.324 23.1246 22.9628
299 1 0 -12.324 21.3458 25.2064
300 1 0 -10.7835 22.2352 28.0028
301 1 0 -12.324 21.3458 30.2496
302 1 0 -12.324 23.1246 33.046
303 1 0 -12.324 21.3458 35.2896
304 1 0 -10.7835 22.2352 38.086
305 1 0 -12.324 21.3458 40.3328
306 1 0 -12.324 23.1246 43.1292
307 1 0 -12.324 21.3458 45.3728
308 1 0 -10.7835 22.2352 48.1692
309 1 0 -12.324 21.3458 50.416
310 1 0 -12.324 23.1246 53.2124
311 1 0 -12.324 21.3458 55.456
312 1 0 -10.7835 22.2352 58.2524
313 1 0 -12.324 21.3458 60.4992
314 1 0 -12.324 23.1246 63.2956
315 1 0 -12.324 21.3458 65.5392
316 1 0 -10.7835 22.2352 68.3356
317 1 0 -12.324 21.3458 70.5824
318 1 0 -12.324 23.1246 73.3788
319 1 0 -12.324 21.3458 75.6224
320 1 0 -10.7835 22.2352 78.4188
321 1 0 -12.324 21.3458 80.6656
322 1 0 -12.324 23.1246 83.462
323 1 0 -12.324 21.3458 85.7056
324 1 0 -10.7835 22.2352 88.502
325 1 0 -13.8645 24.014 0
326 1 0 -13.8645 25.7928 2.79637
327 1 0 -13.8645 24.014 5.03999
328 1 0 -12.324 24.9034 7.83636
329 1 0 -13.8645 24.014 10.0832
330 1 0 -13.8645 25.7928 12.8796
331 1 0 -13.8645 24.014 15.1232
332 1 0 -12.324 24.9034 17.9196
333 1 0 -13.8645 24.014 20.1664
334 1 0 -13.8645 25.7928 22.9628
335 1 0 -13.8645 24.014 25.2064
336 1 0 -12.324 24.9034 28.0028
337 1 0 -13.8645 24.014 30.2496
338 1 0 -13.8645 25.7928 33.046
339 1 0 -13.8645 24.014 35.2896
340 1 0 -12.324 24.9034 38.086
341 1 0 -13.8645 24.014 40.3328
342 1 0 -13.8645 25.7928 43.1292
343 1 0 -13.8645 24.014 45.3728
344 1 0 -12.324 24.9034 48.1692
345 1 0 -13.8645 24.014 50.416
346 1 0 -13.8645 25.7928 53.2124
347 1 0 -13.8645 24.014 55.456
348 1 0 -12.324 24.9034 58.2524
349 1 0 -13.8645 24.014 60.4992
350 1 0 -13.8645 25.7928 63.2956
351 1 0 -13.8645 24.014 65.5392
352 1 0 -12.324 24.9034 68.3356
353 1 0 -13.8645 24.014 70.5824
354 1 0 -13.8645 25.7928 73.3788
355 1 0 -13.8645 24.014 75.6224
356 1 0 -12.324 24.9034 78.4188
357 1 0 -13.8645 24.014 80.6656
358 1 0 -13.8645 25.7928 83.462
359 1 0 -13.8645 24.014 85.7056
360 1 0 -12.324 24.9034 88.502
361 1 0 3.081 0 0
362 1 0 3.08098 1.77883 2.79637
363 1 0 3.081 -9.04671e-13 5.03999
364 1 0 4.62152 0.889399 7.83636
365 1 0 3.081 -1.80992e-12 10.0832
366 1 0 3.08098 1.77883 12.8796
367 1 0 3.081 -2.71459e-12 15.1232
368 1 0 4.62152 0.889399 17.9196
369 1 0 3.081 -3.61984e-12 20.1664
370 1 0 3.08098 1.77883 22.9628
371 1 0 3.081 -4.52451e-12 25.2064
372 1 0 4.62152 0.889399 28.0028
373 1 0 3.081 -5.42976e-12 30.2496
374 1 0 3.08098 1.77883 33.046
375 1 0 3.081 -6.33443e-12 35.2896
376 1 0 4.62152 0.889399 38.086
377 1 0 3.081 -7.23968e-12 40.3328
378 1 0 3.08098 1.77883 43.1292
379 1 0 3.081 -8.14435e-12 45.3728
380 1 0 4.62152 0.889399 48.1692
381 1 0 3.081 -9.0496e-12 50.416
382 1 0 3.08098 1.77883 53.2124
383 1 0 3.081 -9.95428e-12 55.456
384 1 0 4.62152 0.889399 58.2524
385 1 0 3.081 -1.08595e-11 60.4992
386 1 0 3.08098 1.77883 63.2956
387 1 0 3.081 -1.17642e-11 65.5392
388 1 0 4.62152 0.889399 68.3356
389 1 0 3.081 -1.26694e-11 70.5824
390 1 0 3.08098 1.77883 73.3788
391 1 0 3.081 -1.35741e-11 75.6224
392 1 0 4.62152 0.889399 78.4188
393 1 0 3.081 -1.44794e-11 80.6656
394 1 0 3.08098 1.77883 83.462
395 1 0 3.081 -1.5384e-11 85.7056
396 1 0 4.62152 0.889399 88.502
397 1 0 1.5405 2.66822 0
398 1 0 1.54048 4.44705 2.79637
399 1 0 1.5405 2.66822 5.03999
400 1 0 3.08102 3.55762 7.83636
401 1 0 1.5405 2.66822 10.0832
402 1 0 1.54048 4.44705 12.8796
403 1 0 1.5405 2.66822 15.1232
404 1 0 3.08102 3.55762 17.9196
405 1 0 1.5405 2.66822 20.1664
406 1 0 1.54048 4.44705 22.9628
407 1 0 1.5405 2.66822 25.2064
408 1 0 3.08102 3.55762 28.0028
409 1 0 1.5405 2.66822 30.2496
410 1 0 1.54048 4.44705 33.046
411 1 0 1.5405 2.66822 35.2896
412 1 0 3.08102 3.55762 38.086
413 1 0 1.5405 2.66822 40.3328
414 1 0 1.54048 4.44705 43.1292
415 1 0 1.5405 2.66822 45.3728
416 1 0 3.08102 3.55762 48.1692
417 1 0 1.5405 2.66822 50.416
418 1 0 1.54048 4.44705 53.2124
419 1 0 1.5405 2.66822 55.456
420 1 0 3.08102 3.55762 58.2524
421 1 0 1.5405 2.66822 60.4992
422 1 0 1.54048 4.44705 63.2956
423 1 0 1.5405 2.66822 65.5392
424 1 0 3.08102 3.55762 68.3356
425 1 0 1.5405 2.66822 70.5824
426 1 0 1.54048 4.44705 73.3788
427 1 0 1.5405 2.66822 75.6224
428 1 0 3.08102 3.55762 78.4188
429 1 0 1.5405 2.66822 80.6656
430 1 0 1.54048 4.44705 83.462
431 1 0 1.5405 2.66822 85.7056
432 1 0 3.08102 3.55762 88.502
433 1 0 -7.363e-13 5.33645 0
434 1 0 -1.5405e-05 7.11527 2.79637
435 1 0 -1.25861e-12 5.33645 5.03999
436 1 0 1.54052 6.22585 7.83636
437 1 0 -1.78126e-12 5.33645 10.0832
438 1 0 -1.5405e-05 7.11527 12.8796
439 1 0 -2.30357e-12 5.33645 15.1232
440 1 0 1.54052 6.22585 17.9196
441 1 0 -2.82622e-12 5.33645 20.1664
442 1 0 -1.5405e-05 7.11527 22.9628
443 1 0 -3.34853e-12 5.33645 25.2064
444 1 0 1.54052 6.22585 28.0028
445 1 0 -3.87117e-12 5.33645 30.2496
446 1 0 -1.5405e-05 7.11527 33.046
447 1 0 -4.39349e-12 5.33645 35.2896
448 1 0 1.54052 6.22585 38.086
449 1 0 -4.91613e-12 5.33645 40.3328
450 1 0 -1.5405e-05 7.11527 43.1292
451 1 0 -5.43845e-12 5.33645 45.3728
452 1 0 1.54052 6.22585 48.1692
453 1 0 -5.96109e-12 5.33645 50.416
454 1 0 -1.5405e-05 7.11527 53.2124
455 1 0 -6.4834e-12 5.33645 55.456
456 1 0 1.54052 6.22585 58.2524
457 1 0 -7.00605e-12 5.33645 60.4992
458 1 0 -1.5405e-05 7.11527 63.2956
459 1 0 -7.52836e-12 5.33645 65.5392
460 1 0 1.54052 6.22585 68.3356
461 1 0 -8.05101e-12 5.33645 70.5824
462 1 0 -1.5405e-05 7.11527 73.3788
463 1 0 -8.57332e-12 5.33645 75.6224
464 1 0 1.54052 6.22585 78.4188
465 1 0 -9.09597e-12 5.33645 80.6656
466 1 0 -1.5405e-05 7.11527 83.462
467 1 0 -9.61828e-12 5.33645 85.7056
468 1 0 1.54052 6.22585 88.502
469 1 0 -1.5405 8.00467 0
470 1 0 -1.54052 9.7835 2.79637
471 1 0 -1.5405 8.00467 5.03999
472 1 0 1.5405e-05 8.89407 7.83636
473 1 0 -1.5405 8.00467 10.0832
474 1 0 -1.54052 9.7835 12.8796
475 1 0 -1.5405 8.00467 15.1232
476 1 0 1.5405e-05 8.89407 17.9196
477 1 0 -1.5405 8.00467 20.1664
478 1 0 -1.54052 9.7835 22.9628
479 1 0 -1.5405 8.00467 25.2064
480 1 0 1.5405e-05 8.89407 28.0028
481 1 0 -1.5405 8.00467 30.2496
482 1 0 -1.54052 9.7835 33.046
483 1 0 -1.5405 8.00467 35.2896
484 1 0 1.5405e-05 8.89407 38.086
485 1 0 -1.5405 8.00467 40.3328
486 1 0 -1.54052 9.7835 43.1292
487 1 0 -1.5405 8.00467 45.3728
488 1 0 1.5405e-05 8.89407 48.1692
489 1 0 -1.5405 8.00467 50.416
490 1 0 -1.54052 9.7835 53.2124
491 1 0 -1.5405 8.00467 55.456
492 1 0 1.5405e-05 8.89407 58.2524
493 1 0 -1.5405 8.00467 60.4992
494 1 0 -1.54052 9.7835 63.2956
495 1 0 -1.5405 8.00467 65.5392
496 1 0 1.5405e-05 8.89407 68.3356
497 1 0 -1.5405 8.00467 70.5824
498 1 0 -1.54052 9.7835 73.3788
499 1 0 -1.5405 8.00467 75.6224
500 1 0 1.5405e-05 8.89407 78.4188
501 1 0 -1.5405 8.00467 80.6656
502 1 0 -1.54052 9.7835 83.462
503 1 0 -1.5405 8.00467 85.7056
504 1 0 1.5405e-05 8.89407 88.502
505 1 0 -3.081 10.6729 0
506 1 0 -3.08102 12.4517 2.79637
507 1 0 -3.081 10.6729 5.03999
508 1 0 -1.54048 11.5623 7.83636
509 1 0 -3.081 10.6729 10.0832
510 1 0 -3.08102 12.4517 12.8796
511 1 0 -3.081 10.6729 15.1232
512 1 0 -1.54048 11.5623 17.9196
513 1 0 -3.081 10.6729 20.1664
514 1 0 -3.08102 12.4517 22.9628
515 1 0 -3.081 10.6729 25.2064
516 1 0 -1.54048 11.5623 28.0028
517 1 0 -3.081 10.6729 30.2496
518 1 0 -3.08102 12.4517 33.046
519 1 0 -3.081 10.6729 35.2896
520 1 0 -1.54048 11.5623 38.086
521 1 0 -3.081 10.6729 40.3328
522 1 0 -3.08102 12.4517 43.1292
523 1 0 -3.081 10.6729 45.3728
524 1 0 -1.54048 11.5623 48.1692
525 1 0 -3.081 10.6729 50.416
526 1 0 -3.08102 12.4517 53.2124
527 1 0 -3.081 10.6729 55.456
528 1 0 -1.54048 11.5623 58.2524
529 1 0 -3.081 10.6729 60.4992
530 1 0 -3.08102 12.4517 63.2956
531 1 0 -3.081 10.6729 65.5392
532 1 0 -1.54048 11.5623 68.3356
533 1 0 -3.081 10.6729 70.5824
534 1 0 -3.08102 12.4517 73.3788
535 1 0 -3.081 10.6729 75.6224
536 1 0 -1.54048 11.5623 78.4188
537 1 0 -3.081 10.6729 80.6656
538 1 0 -3.08102 12.4517 83.462
539 1 0 -3.081 10.6729 85.7056
540 1 0 -1.54048 11.5623 88.502
541 1 0 -4.6215 13.3411 0
542 1 0 -4.62152 15.1199 2.79637
543 1 0 -4.6215 13.3411 5.03999
544 1 0 -3.08098 14.2305 7.83636
545 1 0 -4.6215 13.3411 10.0832
546 1 0 -4.62152 15.1199 12.8796
547 1 0 -4.6215 13.3411 15.1232
548 1 0 -3.08098 14.2305 17.9196
549 1 0 -4.6215 13.3411 20.1664
550 1 0 -4.62152 15.1199 22.9628
551 1 0 -4.6215 13.3411 25.2064
552 1 0 -3.08098 14.2305 28.0028
553 1 0 -4.6215 13.3411 30.2496
554 1 0 -4.62152 15.1199 33.046
555 1 0 -4.6215 13.3411 35.2896
556 1 0 -3.08098 14.2305 38.086
557 1 0 -4.6215 13.3411 40.3328
558 1 0 -4.62152 15.1199 43.1292
559 1 0 -4.6215 13.3411 45.3728
560 1 0 -3.08098 14.2305 48.1692
561 1 0 -4.6215 13.3411 50.416
562 1 0 -4.62152 15.1199 53.2124
563 1 0 -4.6215 13.3411 55.456
564 1 0 -3.08098 14.2305 58.2524
565 1 0 -4.6215 13.3411 60.4992
566 1 0 -4.62152 15.1199 63.2956
567 1 0 -4.6215 13.3411 65.5392
568 1 0 -3.08098 14.2305 68.3356
569 1 0 -4.6215 13.3411 70.5824
570 1 0 -4.62152 15.1199 73.3788
571 1 0 -4.6215 13.3411 75.6224
572 1 0 -3.08098 14.2305 78.4188
573 1 0 -4.6215 13.3411 80.6656
574 1 0 -4.62152 15.1199 83.462
575 1 0 -4.6215 13.3411 85.7056
576 1 0 -3.08098 14.2305 88.502
577 1 0 -6.162 16.0093 0
578 1 0 -6.16202 17.7882 2.79637
579 1 0 -6.162 16.0093 5.03999
580 1 0 -4.62148 16.8987 7.83636
581 1 0 -6.162 16.0093 10.0832
582 1 0 -6.16202 17.7882 12.8796
583 1 0 -6.162 16.0093 15.1232
584 1 0 -4.62148 16.8987 17.9196
585 1 0 -6.162 16.0093 20.1664
586 1 0 -6.16202 17.7882 22.9628
587 1 0 -6.162 16.0093 25.2064
588 1 0 -4.62148 16.8987 28.0028
589 1 0 -6.162 16.0093 30.2496
590 1 0 -6.16202 17.7882 33.046
591 1 0 -6.162 16.0093 35.2896
592 1 0 -4.62148 16.8987 38.086
593 1 0 -6.162 16.0093 40.3328
594 1 0 -6.16202 17.7882 43.1292
595 1 0 -6.162 16.0093 45.3728
596 1 0 -4.62148 16.8987 48.1692
597 1 0 -6.162 16.0093 50.416
598 1 0 -6.16202 17.7882 53.2124
599 1 0 -6.162 16.0093 55.456
600 1 0 -4.62148 16.8987 58.2524
601 1 0 -6.162 16.0093 60.4992
602 1 0 -6.16202 17.7882 63.2956
603 1 0 -6.162 16.0093 65.5392
604 1 0 -4.62148 16.8987 68.3356
605 1 0 -6.162 16.0093 70.5824
606 1 0 -6.16202 17.7882 73.3788
607 1 0 -6.162 16.0093 75.6224
608 1 0 -4.62148 16.8987 78.4188
609 1 0 -6.162 16.0093 80.6656
610 1 0 -6.16202 17.7882 83.462
611 1 0 -6.162 16.0093 85.7056
612 1 0 -4.62148 16.8987 88.502
613 1 0 -7.7025 18.6776 0
614 1 0 -7.70252 20.4564 2.79637
615 1 0 -7.7025 18.6776 5.03999
616 1 0 -6.16198 19.567 7.83636
617 1 0 -7.7025 18.6776 10.0832
618 1 0 -7.70252 20.4564 12.8796
619 1 0 -7.7025 18.6776 15.1232
620 1 0 -6.16198 19.567 17.9196
621 1 0 -7.7025 18.6776 20.1664
622 1 0 -7.70252 20.4564 22.9628
623 1 0 -7.7025 18.6776 25.2064
624 1 0 -6.16198 19.567 28.0028
625 1 0 -7.7025 18.6776 30.2496
626 1 0 -7.70252 20.4564 33.046
627 1 0 -7.7025 18.6776 35.2896
628 1 0 -6.16198 19.567 38.086
629 1 0 -7.7025 18.6776 40.3328
630 1 0 -7.70252 20.4564 43.1292
631 1 0 -7.7025 18.6776 45.3728
632 1 0 -6.16198 19.567 48.1692
633 1 0 -7.7025 18.6776 50.416
634 1 0 -7.70252 20.4564 53.2124
635 1 0 -7.7025 18.6776 55.456
636 1 0 -6.16198 19.567 58.2524
637 1 0 -7.7025 18.6776 60.4992
638 1 0 -7.70252 20.4564 63.2956
639 1 0 -7.7025 18.6776 65.5392
640 1 0 -6.16198 19.567 68.3356
641 1 0 -7.7025 18.6776 70.5824
642 1 0 -7.70252 20.4564 73.3788
643 1 0 -7.7025 18.6776 75.6224
644 1 0 -6.16198 19.567 78.4188
645 1 0 -7.7025 18.6776 80.6656
646 1 0 -7.70252 20.4564 83.462
647 1 0 -7.7025 18.6776 85.7056
648 1 0 -6.16198 19.567 88.502
649 1 0 -9.243 21.3458 0
650 1 0 -9.24302 23.1246 2.79637
651 1 0 -9.243 21.3458 5.03999
652 1 0 -7.70248 22.2352 7.83636
653 1 0 -9.243 21.3458 10.0832
654 1 0 -9.24302 23.1246 12.8796
655 1 0 -9.243 21.3458 15.1232
656 1 0 -7.70248 22.2352 17.9196
657 1 0 -9.243 21.3458 20.1664
658 1 0 -9.24302 23.1246 22.9628
659 1 0 -9.243 21.3458 25.2064
660 1 0 -7.70248 22.2352 28.0028
661 1 0 -9.243 21.3458 30.2496
662 1 0 -9.24302 23.1246 33.046
663 1 0 -9.243 21.3458 35.2896
664 1 0 -7.70248 22.2352 38.086
665 1 0 -9.243 21.3458 40.3328
666 1 0 -9.24302 23.1246 43.1292
667 1 0 -9.243 21.3458 45.3728
668 1 0 -7.70248 22.2352 48.1692
669 1 0 -9.243 21.3458 50.416
670 1 0 -9.24302 23.1246 53.2124
671 1 0 -9.243 21.3458 55.456
672 1 0 -7.70248 22.2352 58.2524
673 1 0 -9.243 21.3458 60.4992
674 1 0 -9.24302 23.1246 63.2956
675 1 0 -9.243 21.3458 65.5392
676 1 0 -7.70248 22.2352 68.3356
677 1 0 -9.243 21.3458 70.5824
678 1 0 -9.24302 23.1246 73.3788
679 1 0 -9.243 21.3458 75.6224
680 1 0 -7.70248 22.2352 78.4188
681 1 0 -9.243 21.3458 80.6656
682 1 0 -9.24302 23.1246 83.462
683 1 0 -9.243 21.3458 85.7056
684 1 0 -7.70248 22.2352 88.502
685 1 0 -10.7835 24.014 0
686 1 0 -10.7835 25.7928 2.79637
687 1 0 -10.7835 24.014 5.03999
688 1 0 -9.24298 24.9034 7.83636
689 1 0 -10.7835 24.014 10.0832
690 1 0 -10.7835 25.7928 12.8796
691 1 0 -10.7835 24.014 15.1232
692 1 0 -9.24298 24.9034 17.9196
693 1 0 -10.7835 24.014 20.1664
694 1 0 -10.7835 25.7928 22.9628
695 1 0 -10.7835 24.014 25.2064
696 1 0 -9.24298 24.9034 28.0028
697 1 0 -10.7835 24.014 30.2496
698 1 0 -10.7835 25.7928 33.046
699 1 0 -10.7835 24.014 35.2896
700 1 0 -9.24298 24.9034 38.086
701 1 0 -10.7835 24.014 40.3328
702 1 0 -10.7835 25.7928 43.1292
703 1 0 -10.7835 24.014 45.3728
704 1 0 -9.24298 24.9034 48.1692
705 1 0 -10.7835 24.014 50.416
706 1 0 -10.7835 25.7928 53.2124
707 1 0 -10.7835 24.014 55.456
708 1 0 -9.24298 24.9034 58.2524
709 1 0 -10.7835 24.014 60.4992
710 1 0 -10.7835 25.7928 63.2956
711 1 0 -10.7835 24.014 65.5392
712 1 0 -9.24298 24.9034 68.3356
713 1 0 -10.7835 24.014 70.5824
714 1 0 -10.7835 25.7928 73.3788
715 1 0 -10.7835 24.014 75.6224
716 1 0 -9.24298 24.9034 78.4188
717 1 0 -10.7835 24.014 80.6656
718 1 0 -10.7835 25.7928 83.462
719 1 0 -10.7835 24.014 85.7056
720 1 0 -9.24298 24.9034 88.502
721 1 0 6.162 0 0
722 1 0 6.16198 1.77883 2.79637
723 1 0 6.162 -9.04671e-13 5.03999
724 1 0 7.70252 0.889399 7.83636
725 1 0 6.162 -1.80992e-12 10.0832
726 1 0 6.16198 1.77883 12.8796
727 1 0 6.162 -2.71459e-12 15.1232
728 1 0 7.70252 0.889399 17.9196
729 1 0 6.162 -3.61984e-12 20.1664
730 1 0 6.16198 1.77883 22.9628
731 1 0 6.162 -4.52451e-12 25.2064
732 1 0 7.70252 0.889399 28.0028
733 1 0 6.162 -5.42976e-12 30.2496
734 1 0 6.16198 1.77883 33.046
735 1 0 6.162 -6.33443e-12 35.2896
736 1 0 7.70252 0.889399 38.086
737 1 0 6.162 -7.23968e-12 40.3328
738 1 0 6.16198 1.77883 43.1292
739 1 0 6.162 -8.14435e-12 45.3728
740 1 0 7.70252 0.889399 48.1692
741 1 0 6.162 -9.0496e-12 50.416
742 1 0 6.16198 1.77883 53.2124
743 1 0 6.162 -9.95428e-12 55.456
744 1 0 7.70252 0.889399 58.2524
745 1 0 6.162 -1.08595e-11 60.4992
746 1 0 6.16198 1.77883 63.2956
747 1 0 6.162 -1.17642e-11 65.5392
748 1 0 7.70252 0.889399 68.3356
749 1 0 6.162 -1.26694e-11 70.5824
750 1 0 6.16198 1.77883 73.3788
751 1 0 6.162 -1.35741e-11 75.6224
752 1 0 7.70252 0.889399 78.4188
753 1 0 6.162 -1.44794e-11 80.6656
754 1 0 6.16198 1.77883 83.462
755 1 0 6.162 -1.5384e-11 85.7056
756 1 0 7.70252 0.889399 88.502
757 1 0 4.6215 2.66822 0
758 1 0 4.62148 4.44705 2.79637
759 1 0 4.6215 2.66822 5.03999
760 1 0 6.16202 3.55762 7.83636
761 1 0 4.6215 2.66822 10.0832
762 1 0 4.62148 4.44705 12.8796
763 1 0 4.6215 2.66822 15.1232
764 1 0 6.16202 3.55762 17.9196
765 1 0 4.6215 2.66822 20.1664
766 1 0 4.62148 4.44705 22.9628
767 1 0 4.6215 2.66822 25.2064
768 1 0 6.16202 3.55762 28.0028
769 1 0 4.6215 2.66822 30.2496
770 1 0 4.62148 4.44705 33.046
771 1 0 4.6215 2.66822 35.2896
772 1 0 6.16202 3.55762 38.086
773 1 0 4.6215 2.66822 40.3328
774 1 0 4.62148 4.44705 43.1292
775 1 0 4.6215 2.66822 45.3728
776 1 0 6.16202 3.55762 48.1692
777 1 0 4.6215 2.66822 50.416
778 1 0 4.62148 4.44705 53.2124
779 1 0 4.6215 2.66822 55.456
780 1 0 6.16202 3.55762 58.2524
781 1 0 4.6215 2.66822 60.4992
782 1 0 4.62148 4.44705 63.2956
783 1 0 4.6215 2.66822 65.5392
784 1 0 6.16202 3.55762 68.3356
785 1 0 4.6215 2.66822 70.5824
786 1 0 4.62148 4.44705 73.3788
787 1 0 4.6215 2.66822 75.6224
788 1 0 6.16202 3.55762 78.4188
789 1 0 4.6215 2.66822 80.6656
790 1 0 4.62148 4.44705 83.462
791 1 0 4.6215 2.66822 85.7056
792 1 0 6.16202 3.55762 88.502
793 1 0 3.081 5.33645 0
794 1 0 3.08098 7.11527 2.79637
795 1 0 3.081 5.33645 5.03999
796 1 0 4.62152 6.22585 7.83636
797 1 0 3.081 5.33645 10.0832
798 1 0 3.08098 7.11527 12.8796
799 1 0 3.081 5.33645 15.1232
800 1 0 4.62152 6.22585 17.9196
801 1 0 3.081 5.33645 20.1664
802 1 0 3.08098 7.11527 22.9628
803 1 0 3.081 5.33645 25.2064
804 1 0 4.62152 6.22585 28.0028
805 1 0 3.081 5.33645 30.2496
806 1 0 3.08098 7.11527 33.046
807 1 0 3.081 5.33645 35.2896
808 1 0 4.62152 6.22585 38.086
809 1 0 3.081 5.33645 40.3328
810 1 0 3.08098 7.11527 43.1292
811 1 0 3.081 5.33645 45.3728
812 1 0 4.62152 6.22585 48.1692
813 1 0 3.081 5.33645 50.416
814 1 0 3.08098 7.11527 53.2124
815 1 0 3.081 5.33645 55.456
816 1 0 4.62152 6.22585 58.2524
817 1 0 3.081 5.33645 60.4992
818 1 0 3.08098 7.11527 63.2956
819 1 0 3.081 5.33645 65.5392
820 1 0 4.62152 6.22585 68.3356
821 1 0 3.081 5.33645 70.5824
822 1 0 3.08098 7.11527 73.3788
823 1 0 3.081 5.33645 75.6224
824 1 0 4.62152 6.22585 78.4188
825 1 0 3.081 5.33645 80.6656
826 1 0 3.08098 7.11527 83.462
827 1 0 3.081 5.33645 85.7056
828 1 0 4.62152 6.22585 88.502
829 1 0 1.5405 8.00467 0
830 1 0 1.54048 9.7835 2.79637
831 1 0 1.5405 8.00467 5.03999
832 1 0 3.08102 8.89407 7.83636
833 1 0 1.5405 8.00467 10.0832
834 1 0 1.54048 9.7835 12.8796
835 1 0 1.5405 8.00467 15.1232
836 1 0 3.08102 8.89407 17.9196
837 1 0 1.5405 8.00467 20.1664
838 1 0 1.54048 9.7835 22.9628
839 1 0 1.5405 8.00467 25.2064
840 1 0 3.08102 8.89407 28.0028
841 1 0 1.5405 8.00467 30.2496
842 1 0 1.54048 9.7835 33.046
843 1 0 1.5405 8.00467 35.2896
844 1 0 3.08102 8.89407 38.086
845 1 0 1.5405 8.00467 40.3328
846 1 0 1.54048 9.7835 43.1292
847 1 0 1.5405 8.00467 45.3728
848 1 0 3.08102 8.89407 48.1692
849 1 0 1.5405 8.00467 50.416
850 1 0 1.54048 9.7835 53.2124
851 1 0 1.5405 8.00467 55.456
852 1 0 3.08102 8.89407 58.2524
853 1 0 1.5405 8.00467 60.4992
854 1 0 1.54048 9.7835 63.2956
855 1 0 1.5405 8.00467 65.5392
856 1 0 3.08102 8.89407 68.3356
857 1 0 1.5405 8.00467 70.5824
858 1 0 1.54048 9.7835 73.3788
859 1 0 1.5405 8.00467 75.6224
860 1 0 3.08102 8.89407 78.4188
861 1 0 1.5405 8.00467 80.6656
862 1 0 1.54048 9.7835 83.462
863 1 0 1.5405 8.00467 85.7056
864 1 0 3.08102 8.89407 88.502
865 1 0 -1.4726e-12 10.6729 0
866 1 0 -1.5405e-05 12.4517 2.79637
867 1 0 -1.99491e-12 10.6729 5.03999
868 1 0 1.54052 11.5623 7.83636
869 1 0 -2.51756e-12 10.6729 10.0832
870 1 0 -1.5405e-05 12.4517 12.8796
871 1 0 -3.03987e-12 10.6729 15.1232
872 1 0 1.54052 11.5623 17.9196
873 1 0 -3.56252e-12 10.6729 20.1664
874 1 0 -1.5405e-05 12.4517 22.9628
875 1 0 -4.08483e-12 10.6729 25.2064
876 1 0 1.54052 11.5623 28.0028
877 1 0 -4.60747e-12 10.6729 30.2496
878 1 0 -1.5405e-05 12.4517 33.046
879 1 0 -5.12979e-12 10.6729 35.2896
880 1 0 1.54052 11.5623 38.086
881 1 0 -5.65243e-12 10.6729 40.3328
882 1 0 -1.5405e-05 12.4517 43.1292
883 1 0 -6.17474e-12 10.6729 45.3728
884 1 0 1.54052 11.5623 48.1692
885 1 0 -6.69739e-12 10.6729 50.416
886 1 0 -1.5405e-05 12.4517 53.2124
887 1 0 -7.2197e-12 10.6729 55.456
888 1 0 1.54052 11.5623 58.2524
889 1 0 -7.74235e-12 10.6729 60.4992
890 1 0 -1.5405e-05 12.4517 63.2956
891 1 0 -8.26466e-12 10.6729 65.5392
892 1 0 1.54052 11.5623 68.3356
893 1 0 -8.78731e-12 10.6729 70.5824
894 1 0 -1.5405e-05 12.4517 73.3788
895 1 0 -9.30962e-12 10.6729 75.6224
896 1 0 1.54052 11.5623 78.4188
897 1 0 -9.83227e-12 10.6729 80.6656
898 1 0 -1.5405e-05 12.4517 83.462
899 1 0 -1.03546e-11 10.6729 85.7056
900 1 0 1.54052 11.5623 88.502
901 1 0 -1.5405 13.3411 0
902 1 0 -1.54052 15.1199 2.79637
903 1 0 -1.5405 13.3411 5.03999
904 1 0 1.5405e-05 14.2305 7.83636
905 1 0 -1.5405 13.3411 10.0832
906 1 0 -1.54052 15.1199 12.8796
907 1 0 -1.5405 13.3411 15.1232
908 1 0 1.5405e-05 14.2305 17.9196
909 1 0 -1.5405 13.3411 20.1664
910 1 0 -1.54052 15.1199 22.9628
911 1 0 -1.5405 13.3411 25.2064
912 1 0 1.5405e-05 14.2305 28.0028
913 1 0 -1.5405 13.3411 30.2496
914 1 0 -1.54052 15.1199 33.046
915 1 0 -1.5405 13.3411 35.2896
916 1 0 1.5405e-05 14.2305 38.086
917 1 0 -1.5405 13.3411 40.3328
918 1 0 -1.54052 15.1199 43.1292
919 1 0 -1.5405 13.3411 45.3728
920 1 0 1.5405e-05 14.2305 48.1692
921 1 0 -1.5405 13.3411 50.416
922 1 0 -1.54052 15.1199 53.2124