# LAMMPS data file written by Ovito Basic 3.0.0-dev791
60 atoms
3 atom types
0.0 4.9595732689 xlo xhi
0.0 8.5902328491 ylo yhi
0.0 34.2946548462 zlo zhi

Atoms  # charge

1 1 0.0 1.23989296 2.147557974 22.163602829
2 1 0.0 1.23989296 6.442674637 22.163602829
3 1 0.0 3.719679594 2.147557974 22.163602829
4 1 0.0 3.719679594 6.442674637 22.163602829
5 1 0.0 0.0 0.0 22.163602829
6 1 0.0 0.0 4.295116425 22.163602829
7 1 0.0 2.479786634 0.0 22.163602829
8 1 0.0 2.479786634 4.295116425 22.163602829
9 1 0.0 0.0 2.86340785 20.130336761
10 1 0.0 0.0 7.158524513 20.130336761
11 1 0.0 2.479786634 2.86340785 20.130336761
12 1 0.0 2.479786634 7.158524513 20.130336761
13 1 0.0 1.23989296 0.715849996 20.130336761
14 1 0.0 1.23989296 5.010966301 20.130336761
15 1 0.0 3.719679594 0.715849996 20.130336761
16 1 0.0 3.719679594 5.010966301 20.130336761
17 1 0.0 1.23989296 2.147557974 16.081802368
18 1 0.0 1.23989296 6.442674637 16.081802368
19 1 0.0 3.719679594 2.147557974 16.081802368
20 1 0.0 3.719679594 6.442674637 16.081802368
21 1 0.0 0.0 0.0 16.081802368
22 1 0.0 0.0 4.295116425 16.081802368
23 1 0.0 2.479786634 0.0 16.081802368
24 1 0.0 2.479786634 4.295116425 16.081802368
25 1 0.0 1.23989296 3.579266071 18.117380142
26 1 0.0 1.23989296 7.874382973 18.117380142
27 1 0.0 3.719679594 3.579266071 18.117380142
28 1 0.0 3.719679594 7.874382973 18.117380142
29 1 0.0 0.0 1.431707978 18.117380142
30 1 0.0 0.0 5.72682476 18.117380142
31 1 0.0 2.479786634 1.431707978 18.117380142
32 1 0.0 2.479786634 5.72682476 18.117380142
33 1 0.0 0.0 2.86340785 14.040979385
34 1 0.0 0.0 7.158524513 14.040979385
35 1 0.0 2.479786634 2.86340785 14.040979385
36 1 0.0 2.479786634 7.158524513 14.040979385
37 1 0.0 1.23989296 0.715849996 14.040979385
38 1 0.0 1.23989296 5.010966301 14.040979385
39 1 0.0 3.719679594 0.715849996 14.040979385
40 1 0.0 3.719679594 5.010966301 14.040979385
41 1 0.0 1.23989296 2.147557974 10.0
42 1 0.0 1.23989296 6.442674637 10.0
43 1 0.0 3.719679594 2.147557974 10.0
44 1 0.0 3.719679594 6.442674637 10.0
45 1 0.0 0.0 0.0 10.0
46 1 0.0 0.0 4.295116425 10.0
47 1 0.0 2.479786634 0.0 10.0
48 1 0.0 2.479786634 4.295116425 10.0
49 1 0.0 1.23989296 3.579266071 12.005377769
50 1 0.0 1.23989296 7.874382973 12.005377769
51 1 0.0 3.719679594 3.579266071 12.005377769
52 1 0.0 3.719679594 7.874382973 12.005377769
53 1 0.0 0.0 1.431707978 12.005377769
54 1 0.0 0.0 5.72682476 12.005377769
55 1 0.0 2.479786634 1.431707978 12.005377769
56 1 0.0 2.479786634 5.72682476 12.005377769
57 2 0.0 2.2524585605 4.3511204913 23.6181431545
58 3 0.0 1.6502331172 5.2304455199 23.6952730759
59 3 0.0 1.6502718642 3.4848272749 23.7809500899
60 3 0.0 3.0364880978 4.3876578805 24.3460897958
