LAMMPS data file via write_data, version 22 Dec 2022, timestep = 0

1221 atoms
5 atom types
600 bonds
1 bond types
300 angles
1 angle types

-16.16589060763104 32.87694464246103 xlo xhi
-12.517441663292097 35.23981818104378 ylo yhi
-15.904858950544355 31.29199038594363 zlo zhi

Masses

1 12.0107
2 15.9994
3 1.00794
4 15.9994
5 1.00794

Atoms # full

1 1 1 0 7.378341 8.235324 6.361027 0 0 0
3 1 2 0 6.990804 6.929188 6.314895 0 0 0
4 1 3 0 7.71063 6.354454 6.631575 0 0 0
5 1 1 0 6.498619 9.232562 5.942876 0 0 0
6 1 1 0 6.887469 10.570362 5.987201 0 0 0
7 1 1 0 8.157308 10.916581 6.450127 0 0 0
9 1 3 0 5.507704 8.968245 5.581026 0 0 0
10 1 3 0 6.196512 11.343266 5.659048 0 0 0
22 2 2 -0.8476 7.450306978876746 0.23204493552148014 -1.4748240071603862 0 0 0
23 2 3 0.4238 8.283892848480498 0.7706930927293729 -1.3523770781115214 0 0 0
24 2 3 0.4238 6.660150544615575 0.8439637189499255 -1.5095903929823626 0 0 0
25 3 2 -0.8476 6.362692946789473 4.381345951160953 0.7545626347943235 0 0 0
26 3 3 0.4238 7.276486113324739 4.458486069396503 0.355774544886844 0 0 0
27 3 3 0.4238 6.379834202248478 3.7160685091940526 1.5009623884593863 0 0 0
28 4 2 -0.8476 0.4422029011183899 6.553277930019071 5.736871188301816 0 0 0
29 4 3 0.4238 0.3556513938459174 5.557615184047763 5.771003615313954 0 0 0
30 4 3 0.4238 1.3029316161658464 6.797915250423585 5.290441854299161 0 0 0
31 5 2 -0.8476 -3.8263549772643533 -1.6228648242600698 6.3609237895158826 0 0 0
32 5 3 0.4238 -3.9731491182874517 -0.7194920474908674 5.957972680752559 0 0 0
33 5 3 0.4238 -3.431624371802713 -2.2337939556271675 5.674663026205804 0 0 0
34 6 2 -0.8476 -4.921712989548233 1.321847221522174 3.2287724267318088 0 0 0
35 6 3 0.4238 -4.165408681616351 1.9369123432085251 3.451705554796327 0 0 0
36 6 3 0.4238 -5.700162486440924 1.8564035594893582 2.8997338392885856 0 0 0
37 7 2 -0.8476 -0.7743067885911762 0.6121628405714997 1.296752701567317 0 0 0
38 7 3 0.4238 0.1332008699428533 1.0290862121301156 1.3477942694339105 0 0 0
39 7 3 0.4238 -1.4519531825369987 1.3144373255704886 1.078563787569313 0 0 0
40 8 2 -0.8476 2.5262326073973322 -0.8198262622148025 3.6782237473710726 0 0 0
41 8 3 0.4238 2.0556894238575016 -1.5026607518735613 4.23708568189217 0 0 0
42 8 3 0.4238 3.146666640042273 -0.2877144953995453 4.2543480121375215 0 0 0
43 9 2 -0.8476 -2.598951266254916 4.7391979845649095 4.783699699579402 0 0 0
44 9 3 0.4238 -2.2819029817356458 3.8518925042202787 4.448782008894403 0 0 0
45 9 3 0.4238 -2.4165199810947784 5.440241273900872 4.094310388397516 0 0 0
46 10 2 -0.8476 5.711982774505943 3.2186184248805105 -3.935659026706887 0 0 0
47 10 3 0.4238 6.458817198810869 3.306656161896002 -3.2765018457292987 0 0 0
48 10 3 0.4238 5.20223525892773 4.077873747232665 -3.9785338569844937 0 0 0
49 11 2 -0.8476 6.5707641481830885 8.928041001061825 -3.1393972715517897 0 0 0
50 11 3 0.4238 7.272406834803328 8.937806163607725 -3.8518596716914635 0 0 0
51 11 3 0.4238 5.805628611341762 9.508934709047788 -3.417121235200683 0 0 0
52 12 2 -0.8476 7.133064644225108 7.742487882918308 0.6781642784533206 0 0 0
53 12 3 0.4238 6.342300520816105 7.157975023413993 0.49640259958982047 0 0 0
54 12 3 0.4238 7.609351656553287 7.935157632388384 -0.1797573608743258 0 0 0
55 13 2 -0.8476 3.9667078669736373 7.00530352344401 -3.14949724101186 0 0 0
56 13 3 0.4238 3.9538731680034855 7.510175047117798 -2.286397881270669 0 0 0
57 13 3 0.4238 3.8240584258327024 7.639939260193855 -3.9090294050985173 0 0 0
58 14 2 -0.8476 7.778787492362845 4.249438504425664 4.354664679628972 0 0 0
63 15 3 0.4238 5.1275714700978865 -0.42710797130602535 4.889282175218571 0 0 0
60 14 3 0.4238 7.479531386818327 4.9792299166393414 3.739969008867013 0 0 0
61 15 2 -0.8476 5.924866153886136 -0.6746104059910993 5.4397948651067844 0 0 0
62 15 3 0.4238 6.700584080865312 -0.8624882199883168 4.837329833365724 0 0 0
129 37 3 0.4238 0.19116645766178797 11.258404982708484 2.2130676515904555 0 0 0
136 40 2 -0.8476 3.5765686985332894 11.28406592777319 2.5226607560635568 0 0 0
322 102 4 -0.8476 6.492373228803917 -8.027538124761483 -8.695347909701727 0 0 0
323 102 5 0.4238 7.32595909840767 -7.4888899675535905 -8.572900980652863 0 0 0
324 102 5 0.4238 5.702216794542745 -7.415619341333038 -8.730114295523704 0 0 0
325 103 4 -0.8476 4.785748821412721 -1.1801440203686386 -4.532968926744557 0 0 0
326 103 5 0.4238 5.699541987947987 -1.1030039021330889 -4.931757016652036 0 0 0
327 103 5 0.4238 4.802890076871726 -1.8454214623355392 -3.7865691730794944 0 0 0
328 104 4 -0.8476 -13.722467051144095 -11.15280886264317 5.127172588368943 0 0 0
329 104 5 0.4238 -13.809018558416568 -12.148471608614477 5.161305015381081 0 0 0
330 104 5 0.4238 -12.86173833609664 -10.908171542238655 4.680743254366288 0 0 0
331 105 4 -0.8476 -15.659169166943013 -5.828548385837807 0.207727903472521 0 0 0
332 105 5 0.4238 -15.805963307966111 -4.925175609068604 -0.19522320529080286 0 0 0
333 105 5 0.4238 -15.264438561481372 -6.439477517204904 -0.4785328598375568 0 0 0
334 106 4 -0.8476 -11.682023817259275 -6.675692763655875 -1.7767222515349252 0 0 0
335 106 5 0.4238 -10.925719509327392 -6.060627641969524 -1.5537891234704069 0 0 0
336 106 5 0.4238 -12.460473314151963 -6.141136425688691 -2.1057608389781484 0 0 0
337 107 4 -0.8476 -8.113633927785255 -7.368020814640884 -3.6814676403298576 0 0 0
338 107 5 0.4238 -7.206126269251226 -6.9510974430822685 -3.630426072463264 0 0 0
339 107 5 0.4238 -8.791280321731078 -6.6657463296418955 -3.8996565543278616 0 0 0
340 108 4 -0.8476 -2.2535833579300744 -10.202288831813398 1.0498733102878646 0 0 0
341 108 5 0.4238 -2.724126541469905 -10.885123321472157 1.6087352448089622 0 0 0
342 108 5 0.4238 -1.6331493252851332 -9.670177064998141 1.6259975750543132 0 0 0
343 109 4 -0.8476 -11.294517504096357 -0.4505694245823423 2.4772696880631093 0 0 0
344 109 5 0.4238 -10.977469219577088 -1.3378749049269731 2.1423519973781104 0 0 0
345 109 5 0.4238 -11.11208621893622 0.2504738647536203 1.7878803768812235 0 0 0
346 110 4 -0.8476 3.445499531989647 -2.8348511345119034 -13.062971772689025 0 0 0
347 110 5 0.4238 4.192333956294573 -2.7468133974964117 -12.403814591711438 0 0 0
348 110 5 0.4238 2.935752016411434 -1.9755958121597486 -13.105846602966633 0 0 0
349 111 4 -0.8476 -10.028298146705596 -10.09155539481656 -4.201331592395329 0 0 0
350 111 5 0.4238 -9.326655460085357 -10.08179023227066 -4.913793992535003 0 0 0
351 111 5 0.4238 -10.793433683546924 -9.510661686830597 -4.479055556044222 0 0 0
352 112 4 -0.8476 4.142034508759357 2.729395761906489 6.081636670308855 0 0 0
353 112 5 0.4238 3.351270385350354 2.144882902402173 5.899874991445355 0 0 0
354 112 5 0.4238 4.618321521087536 2.922065511376564 5.223715030981209 0 0 0
355 113 4 -0.8476 4.928006490031839 6.917094813400884 -12.413650310872283 0 0 0
356 113 5 0.4238 4.915171791061687 7.421966337074672 -11.550550951131092 0 0 0
357 113 5 0.4238 4.785357048890904 7.551730550150729 -13.17318247495894 0 0 0
358 114 4 -0.8476 -1.6368706594475433 -6.951761162933944 -1.1151406174430099 0 0 0
359 114 5 0.4238 -0.6499782857289398 -7.082956459532475 -1.209117883558194 0 0 0
360 114 5 0.4238 -1.9361267649920613 -6.221969750720267 -1.7298362882049696 0 0 0
361 115 4 -0.8476 0.18883475762699378 4.222292549858581 -11.344459535108083 0 0 0
362 115 5 0.4238 0.9645526846061699 4.034414735861365 -11.946924566849143 0 0 0
363 115 5 0.4238 -0.6084599261612554 4.469794984543656 -11.894972224996296 0 0 0
364 116 4 -0.8476 7.689227771978949 -1.175286997599458 1.358769261758542 0 0 0
365 116 5 0.4238 7.568108646359654 -0.22533402546883308 1.0708109351739308 0 0 0
366 116 5 0.4238 7.16691507992336 -1.3390713653599176 2.195647163423385 0 0 0
367 117 4 -0.8476 -12.455345838673395 -10.225751287871446 -0.5412946433359407 0 0 0
368 117 5 0.4238 -12.814121919099104 -10.376324480966751 0.37990453563430227 0 0 0
369 117 5 0.4238 -11.800249031777446 -9.470392389072867 -0.5245137821981116 0 0 0
370 118 4 -0.8476 4.005226196740035 -9.778304678936264 3.53263612927515 0 0 0
371 118 5 0.4238 3.7934937254452046 -10.712022660439851 3.243948441078628 0 0 0
372 118 5 0.4238 3.4519242913875194 -9.13300791669386 3.00590130047346 0 0 0
373 119 4 -0.8476 -5.580414626706778 -7.564708493746155 -0.5965989671009735 0 0 0
374 119 5 0.4238 -5.759075377944573 -8.378550892725379 -1.1495378202220825 0 0 0
375 119 5 0.4238 -5.635666938666537 -6.75043114056286 -1.1744398308479986 0 0 0
376 120 4 -0.8476 -1.9244573956547912 0.3854516299369834 -6.473509281107902 0 0 0
377 120 5 0.4238 -2.2214793363620258 1.0424418869848155 -5.780586299397285 0 0 0
378 120 5 0.4238 -1.1577294814475523 -0.14952244880646515 -6.118640952924031 0 0 0
379 121 4 -0.8476 -11.648197822706207 8.937071605771191 -2.248224903233515 0 0 0
380 121 5 0.4238 -11.254714815325077 8.456565087375212 -1.464461483328455 0 0 0
381 121 5 0.4238 -11.406839756265684 9.906330694489611 -2.2004379552159974 0 0 0
382 122 4 -0.8476 -6.31421426323038 -0.9846924834296152 -1.5200350131388645 0 0 0
383 122 5 0.4238 -5.426650526951681 -0.5904411443029145 -1.758356194194593 0 0 0
384 122 5 0.4238 -7.002001752055852 -0.2596958012146298 -1.483584077726784 0 0 0
385 123 4 -0.8476 -4.5356500932666775 -11.740932179745501 3.907237728760177 0 0 0
386 123 5 0.4238 -4.0850314493685005 -12.512700936019902 4.355920594836019 0 0 0
387 123 5 0.4238 -5.212328939658496 -11.343730500319003 4.527186964106593 0 0 0
388 124 4 -0.8476 7.680362653318521 9.600283433806293 -13.583393791831814 0 0 0
389 124 5 0.4238 7.785273162295978 9.95721410275411 -12.65517249689695 0 0 0
450 144 5 0.4238 -11.970090700098464 9.343006921770673 5.457274275384829 0 0 0
391 125 4 -0.8476 0.33603983366022067 -10.20710718726199 -7.48759629505141 0 0 0
392 125 5 0.4238 1.1526551004203398 -10.349777675944907 -8.046868257028118 0 0 0
393 125 5 0.4238 -0.3538451738516043 -9.720079296169354 -8.023192224281898 0 0 0
394 126 4 -0.8476 5.578404438008837 -6.342812941959463 -4.527029936395633 0 0 0
395 126 5 0.4238 6.315667186583186 -6.486845979001887 -3.866955233422603 0 0 0
396 126 5 0.4238 5.7547392009543685 -5.506718416160084 -5.046503212902958 0 0 0
397 127 4 -0.8476 -15.280815035754904 10.323068192002575 -13.571073404688807 0 0 0
398 127 5 0.4238 -14.435229251216041 10.856530974256561 -13.55100774657267 0 0 0
399 127 5 0.4238 -16.065954071280082 10.941604567672831 -13.539929600051334 0 0 0
400 128 4 -0.8476 1.8487581004447942 6.659807470405139 -5.99300269116488 0 0 0
401 128 5 0.4238 2.07941685875449 6.421921295453813 -6.936510610941951 0 0 0
402 128 5 0.4238 2.3620809913885044 7.473194715022764 -5.719321691410531 0 0 0
403 129 4 -0.8476 0.826295766654157 7.088068184037903 -11.374971902803882 0 0 0
404 129 5 0.4238 1.4514867835128804 7.057844286361749 -10.595085245559115 0 0 0
405 129 5 0.4238 1.2818021729414983 7.525051235764763 -12.150575033299546 0 0 0
406 130 4 -0.8476 5.373993544568966 -9.56336721390699 -2.269161674937326 0 0 0
407 130 5 0.4238 6.270304651004296 -9.121604934621034 -2.2307822692520785 0 0 0
408 130 5 0.4238 4.767385147970417 -9.035454399407143 -2.8635813946329196 0 0 0
409 131 4 -0.8476 -13.464474887140952 8.1880939892637 -8.371519186773945 0 0 0
410 131 5 0.4238 -12.642072348595748 8.754071765157203 -8.313867547690158 0 0 0
411 131 5 0.4238 -14.274471212147079 8.774220524797466 -8.352489538333847 0 0 0
412 132 4 -0.8476 7.5568888571985315 -0.5727318580346072 -9.846468976585404 0 0 0
413 132 5 0.4238 7.785851160552073 0.3453606865519363 -9.52292171123203 0 0 0
414 132 5 0.4238 7.236165260665156 -1.1265775615844835 -9.078099403407212 0 0 0
415 133 4 -0.8476 -13.736468517499413 8.87340481350623 0.8614710487060311 0 0 0
416 133 5 0.4238 -14.700632326295272 8.715037369022493 0.6486133684688623 0 0 0
417 133 5 0.4238 -13.180476852429331 8.154990223476675 0.4434348841158537 0 0 0
418 134 4 -0.8476 -7.980498726923506 7.423116008753646 -4.4568348440892285 0 0 0
419 134 5 0.4238 -7.463795101551271 7.781265040376336 -5.234489731796442 0 0 0
420 134 5 0.4238 -8.16611287322983 6.450878069838892 -4.599317364160171 0 0 0
421 135 4 -0.8476 7.234262658798958 -10.41596768965875 -4.907920236868401 0 0 0
422 135 5 0.4238 8.180882428939313 -10.737563916408064 -4.929996636484803 0 0 0
423 135 5 0.4238 6.706778883326759 -10.976042170461582 -4.26911045902602 0 0 0
424 136 4 -0.8476 3.912978768278365 -4.84853044443945 7.476048123935648 0 0 0
425 136 5 0.4238 4.831767513990286 -4.484262016942986 7.6281541500568 0 0 0
426 136 5 0.4238 3.2367877571848274 -4.1356745164309805 7.662065951359481 0 0 0
427 137 4 -0.8476 -14.666695041650119 -2.7058584219705684 6.008878777562019 0 0 0
428 137 5 0.4238 -13.89720063505227 -3.055007227776063 6.5436441086365225 0 0 0
429 137 5 0.4238 -14.35237417450361 -1.9621584494127147 5.418867563267142 0 0 0
430 138 4 -0.8476 -1.9518845928233235 10.506177769837432 3.9022933809717837 0 0 0
449 144 5 0.4238 -11.154996079915248 9.075081087144117 4.067864261138478 0 0 0
432 138 5 0.4238 -2.947931843529737 10.572315652894757 3.9615904676193674 0 0 0
433 139 4 -0.8476 7.862404466134489 -11.6771747539706 -8.558033123664591 0 0 0
448 144 4 -0.8476 -11.073015730822583 9.145463945802732 5.062010108220126 0 0 0
435 139 5 0.4238 7.020178232311022 -11.16280485955221 -8.71952328582797 0 0 0
436 140 4 -0.8476 -3.315268356131721 -8.942189425694673 -4.95627403654466 0 0 0
437 140 5 0.4238 -3.0764224772235758 -9.266689173916347 -4.041040159749955 0 0 0
438 140 5 0.4238 -2.546098882135259 -9.097350487869832 -5.576196495209196 0 0 0
439 141 4 -0.8476 0.3558491303581919 10.426132086894745 -10.73260548684946 0 0 0
440 141 5 0.4238 0.662158837745809 10.684055423960075 -9.816281087383203 0 0 0
441 141 5 0.4238 0.7473881394815405 9.53917986335435 -10.977581908554601 0 0 0
442 142 4 -0.8476 -12.181379744166396 2.2712442423343084 -7.912341422763421 0 0 0
443 142 5 0.4238 -13.012592097823717 1.9151143134029303 -7.485424584788172 0 0 0
444 142 5 0.4238 -12.02813755425723 1.8050218998939576 -8.783635889830254 0 0 0
445 143 4 -0.8476 -11.56322009548247 4.415918861227257 1.7227244881262584 0 0 0
446 143 5 0.4238 -12.268577706792984 4.061340165064526 1.1089288559376085 0 0 0
447 143 5 0.4238 -11.852727555432153 5.301004943277874 2.0871535589943373 0 0 0
833 272 5 0.4238 8.349602384936308 -11.524856362136164 4.907541663433169 0 0 0
64 16 2 -0.8476 1.685892738257461 2.503706724092786 19.71466734006919 0 0 0
65 16 3 0.4238 1.5558566347536875 3.433363786639802 19.369951736212897 0 0 0
66 16 3 0.4238 1.4127041530789626 2.4633424857534347 20.675780868686623 0 0 0
67 17 2 -0.8476 4.5211779257986855 5.956561902833144 11.28680080195065 0 0 0
68 17 3 0.4238 4.515977338548136 6.544279831180929 10.477751310083287 0 0 0
69 17 3 0.4238 5.435033185803457 5.570439941734121 11.412414832292232 0 0 0
70 18 2 -0.8476 -1.300022669855208 9.736303627253177 13.00009015008156 0 0 0
71 18 3 0.4238 -0.4937237577375013 10.32216109402446 12.918520654274989 0 0 0
72 18 3 0.4238 -2.1001456193533414 10.297902256449575 13.21082869679557 0 0 0
73 19 2 -0.8476 -4.601321296172572 11.324120770513062 17.602169957636928 0 0 0
74 19 3 0.4238 -4.787284805299316 11.149529067918186 16.63524917476054 0 0 0
96 26 3 0.4238 -2.230137977540398 3.739692500538502 19.338346061128103 0 0 0
76 20 2 -0.8476 6.1959658740750765 9.650857061522926 13.7334033371329 0 0 0
77 20 3 0.4238 6.832342911263127 10.386363577171883 13.500906193757567 0 0 0
78 20 3 0.4238 5.271206108243661 9.909595791707554 13.454343962264627 0 0 0
79 21 2 -0.8476 -3.28271670685774 -1.1420686888812268 16.255223731996622 0 0 0
80 21 3 0.4238 -2.410819773806018 -0.6674668807504314 16.134603039103652 0 0 0
81 21 3 0.4238 -4.0193379247542405 -0.4705962906693019 16.335936119423845 0 0 0
82 22 2 -0.8476 -0.13556828848883773 0.4227023908007911 13.800351691458967 0 0 0
83 22 3 0.4238 0.1923763076467191 0.39491576527286554 12.856063210640071 0 0 0
84 22 3 0.4238 0.44766416740028736 -0.15357867293621041 14.372837960006686 0 0 0
85 23 2 -0.8476 3.07206666208068 3.142049146601516 10.256092454477677 0 0 0
86 23 3 0.4238 2.572722224183979 3.8640924528082903 9.777230171557402 0 0 0
87 23 3 0.4238 2.696618692798504 3.031039715154121 11.17626429614184 0 0 0
88 24 2 -0.8476 4.434650667852001 9.126092695854156 19.4088585981872 0 0 0
89 24 3 0.4238 5.252412589744026 8.647816801677905 19.72904307290977 0 0 0
90 24 3 0.4238 4.323036721060527 9.976431783180844 19.923121423157124 0 0 0
91 25 2 -0.8476 6.385139116343575 0.3984632740936527 13.5776598016027 0 0 0
92 25 3 0.4238 7.06992662221931 -0.26115969632412767 13.267879075291791 0 0 0
93 25 3 0.4238 6.081275843180482 0.15566078304360365 14.498916851107616 0 0 0
94 26 2 -0.8476 -1.4776875173781536 3.090991515022006 19.224302972378485 0 0 0
95 26 3 0.4238 -0.6113617710508834 3.58893683615534 19.185179474171914 0 0 0
451 145 4 -0.8476 -3.8950396421971845 -4.104723585510719 30.32629032126029 0 0 0
452 145 5 0.4238 -4.025075745700958 -3.1750665229637027 29.981574717403998 0 0 0
453 145 5 0.4238 -4.168228227375683 -4.14508782385007 31.287403849877723 0 0 0
454 146 4 -0.8476 -9.409471234685823 8.974779049020677 18.14294889670317 0 0 0
455 146 5 0.4238 -9.414671821936372 9.562496977368461 17.333899404835808 0 0 0
456 146 5 0.4238 -8.495615974681051 8.588657087921653 18.268562927044755 0 0 0
457 147 4 -0.8476 -2.2484185728999586 -7.389446445573432 30.321191709633762 0 0 0
458 147 5 0.4238 -1.442119660782252 -6.803588978802149 30.23962221382719 0 0 0
459 147 5 0.4238 -3.048541522398092 -6.827847816377033 30.53193025634777 0 0 0
460 148 4 -0.8476 -15.23448177351289 11.251675449862972 26.118437639157044 0 0 0
461 148 5 0.4238 -15.420445282639633 11.077083747268096 25.151516856280654 0 0 0
558 180 5 0.4238 1.3017050240302162 8.435888485486648 17.010581804240562 0 0 0
463 149 4 -0.8476 -12.46654029206881 -10.390763316727465 23.9541736923392 0 0 0
464 149 5 0.4238 -11.83016325488076 -9.655256801078508 23.72167654896387 0 0 0
465 149 5 0.4238 -13.391300057900226 -10.132024586542837 23.67511431747093 0 0 0
466 150 4 -0.8476 -6.539347702160888 -8.718223170001906 19.090248177817635 0 0 0
467 150 5 0.4238 -5.667450769109165 -8.243621361871112 18.969627484924665 0 0 0
468 150 5 0.4238 -7.275968920057388 -8.046750771789982 19.170960565244858 0 0 0
469 151 4 -0.8476 0.3162622375912504 11.01484722338774 20.03417805644329 0 0 0
470 151 5 0.4238 0.6442068337268072 10.987060597859815 19.089889575624397 0 0 0
471 151 5 0.4238 0.8994946934803755 10.438566159650739 20.60666432499101 0 0 0
472 152 4 -0.8476 -1.5480493345328683 -3.054011071030959 12.9247419579269 0 0 0
473 152 5 0.4238 -2.047393772429569 -2.3319677648241846 12.445879675006625 0 0 0
474 152 5 0.4238 -1.9234973038150447 -3.1650205024783538 13.844913799591062 0 0 0
475 153 4 -0.8476 1.2917900029377678 7.392715023858993 29.82591157635463 0 0 0
476 153 5 0.4238 2.1095519248297934 6.914439129682741 30.1460960510772 0 0 0
477 153 5 0.4238 1.1801760561462942 8.24305411118568 30.340174401324553 0 0 0
478 154 4 -0.8476 4.682411254014312 -8.252570929180585 19.065878543265903 0 0 0
479 154 5 0.4238 5.367198759890046 -8.912193899598364 18.756097816954995 0 0 0
480 154 5 0.4238 4.378547980851218 -8.495373420230633 19.98713559277082 0 0 0
481 155 4 -0.8476 -10.764831350609178 5.962956187350587 14.148844590781222 0 0 0
482 155 5 0.4238 -9.898505604281908 6.4609015084839205 14.109721092574654 0 0 0
483 155 5 0.4238 -11.517281810771424 6.6116571728670825 14.262887679530841 0 0 0
484 156 4 -0.8476 -9.395224327207348 -2.7934865998994285 29.645912246648596 0 0 0
485 156 5 0.4238 -8.887622366397185 -3.1714787724681544 28.87166250880011 0 0 0
486 156 5 0.4238 -9.794702029288782 -1.914537097913501 29.385401540153783 0 0 0
487 157 4 -0.8476 4.81238593783391 5.290178021660761 29.410040785933447 0 0 0
488 157 5 0.4238 5.693794164743296 5.397234601498335 28.949976751314423 0 0 0
489 157 5 0.4238 4.182151554540608 5.998413157986002 29.091908575226515 0 0 0
490 158 4 -0.8476 -11.315885061160692 0.4478682119970514 26.87396520049497 0 0 0
491 158 5 0.4238 -10.572981718615411 0.24290692332973307 26.236716439426825 0 0 0
492 158 5 0.4238 -11.125819670714796 0.018279149480289525 27.756761255323386 0 0 0
493 159 4 -0.8476 -15.31154264017272 8.39931771437839 29.80158422207755 0 0 0
494 159 5 0.4238 -15.048242430929891 8.897974409766908 30.627426210388197 0 0 0
495 159 5 0.4238 -16.161079756072468 8.781567182854781 29.438028831169568 0 0 0
496 160 4 -0.8476 0.21149518121223337 -6.80868653565168 23.824693574918115 0 0 0
497 160 5 0.4238 0.1812912709856575 -5.811250816290646 23.889579623108474 0 0 0
498 160 5 0.4238 0.8629179047555748 -7.16664674170917 24.493658010318573 0 0 0
499 161 4 -0.8476 -2.458090478569153 -5.549185177958062 18.874650123198087 0 0 0
500 161 5 0.4238 -1.9412853051008059 -4.728734170792389 18.630164853259007 0 0 0
501 161 5 0.4238 -1.9959298649516086 -6.023223967116783 19.624113453384155 0 0 0
502 162 4 -0.8476 -13.429361870350041 -4.991207940437835 26.853535609966766 0 0 0
503 162 5 0.4238 -12.809047709136674 -4.463204726994225 26.273515405412326 0 0 0
504 162 5 0.4238 -13.157496476851707 -4.890530903330946 27.810590379411742 0 0 0
505 163 4 -0.8476 6.85841284795273 5.111214914503909 19.69122383165815 0 0 0
506 163 5 0.4238 7.263370947128165 5.938455240312313 19.301758979625745 0 0 0
507 163 5 0.4238 5.9335460552519725 5.312848037103328 20.013661405973277 0 0 0
508 164 4 -0.8476 -6.682401595674201 3.518974996939066 12.587763481407713 0 0 0
509 164 5 0.4238 -6.876882490850521 3.0327252930120485 11.735860378618256 0 0 0
510 164 5 0.4238 -6.307829161348283 2.8790743668973433 13.258750191272641 0 0 0
511 165 4 -0.8476 3.623592163495348 -11.74868434469393 12.15357671702658 0 0 0
512 165 5 0.4238 3.3689432086426576 -11.035700807054633 11.500270606120072 0 0 0
513 165 5 0.4238 4.515406455145095 -12.126151523875398 11.904204931232671 0 0 0
514 166 4 -0.8476 -10.776295730641056 -4.9791858023374225 24.88734508794364 0 0 0
515 166 5 0.4238 -10.453980264882057 -5.726081010498519 24.305743180915687 0 0 0
516 166 5 0.4238 -10.076498796144827 -4.266288012140139 24.932748621963718 0 0 0
517 167 4 -0.8476 4.771205193737599 -2.920327037125321 15.987237900415751 0 0 0
518 167 5 0.4238 4.7622386552200915 -3.295043880575357 15.060141692828937 0 0 0
519 167 5 0.4238 5.702927770241787 -2.6482289267946055 16.227770951131976 0 0 0
520 168 4 -0.8476 2.728094946946805 -4.77827891851756 27.937157198650542 0 0 0
521 168 5 0.4238 3.300677299219447 -3.993127280143709 28.17313780023632 0 0 0
522 168 5 0.4238 2.1572157762384343 -4.549485528530623 27.14864527936865 0 0 0
523 169 4 -0.8476 -1.272014014221198 4.707423496927555 27.943717011943555 0 0 0
524 169 5 0.4238 -0.40905136594526603 5.201359975562255 28.050125246843592 0 0 0
525 169 5 0.4238 -2.0331191507570097 5.355202381634181 27.97691305639229 0 0 0
526 170 4 -0.8476 -15.226757440411069 6.126167832290792 27.71242551132346 0 0 0
527 170 5 0.4238 -14.868979782880682 5.8186610415166395 26.83070264607619 0 0 0
528 170 5 0.4238 -14.519252409975975 6.026953266508514 28.41213515935303 0 0 0
529 171 4 -0.8476 6.187840668411889 -4.5249400027289735 12.093469670982588 0 0 0
530 171 5 0.4238 6.990961764874391 -4.6832289238189535 12.66787511278919 0 0 0
531 171 5 0.4238 5.9387608187956555 -3.557078621735446 12.12816931646286 0 0 0
532 172 4 -0.8476 5.85140361359924 6.260098021905866 23.949322469738796 0 0 0
533 172 5 0.4238 5.787442534292527 5.848601993438244 24.858487190011914 0 0 0
534 172 5 0.4238 6.6304991578400685 6.886362289267261 23.92097304169548 0 0 0
535 173 4 -0.8476 -6.8127500732385675 10.835127710193152 23.45742807830171 0 0 0
557 180 5 0.4238 2.3194142748277127 9.709127978089294 16.911825762814455 0 0 0
556 180 4 -0.8476 1.501688730178353 9.285347767489391 16.52229302165935 0 0 0
538 174 4 -0.8476 1.8380275556603225 10.456309131520324 25.999650036952765 0 0 0
539 174 5 0.4238 1.0637413804960647 9.992929324492634 26.430649530094563 0 0 0
540 174 5 0.4238 2.6505753527980427 9.876874774317002 26.063072373388845 0 0 0
541 175 4 -0.8476 7.093779475349245 0.8875628788728629 21.114163731292322 0 0 0
542 175 5 0.4238 8.052152707795077 1.0740065851800178 20.897923167544953 0 0 0
543 175 5 0.4238 6.634666226532332 1.7419774418436267 21.357456289839142 0 0 0
544 176 4 -0.8476 0.4764616704156441 -9.200757872419372 30.1093701190825 0 0 0
545 176 5 0.4238 0.9758277306026542 -8.497496084441472 30.615390756214456 0 0 0
546 176 5 0.4238 0.95362130386885 -10.075362631571426 30.19531015149684 0 0 0
547 177 4 -0.8476 2.897534358817725 -11.957876809064928 19.506197578642954 0 0 0
548 177 5 0.4238 3.887650654304159 -11.828829156246162 19.45127113315275 0 0 0
549 177 5 0.4238 2.490072933589877 -11.1985493575304 20.013541148620313 0 0 0
550 178 4 -0.8476 3.328530674313977 -6.595202585676061 16.67580472566141 0 0 0
551 178 5 0.4238 4.25322669655327 -6.433155117257721 17.020302003058543 0 0 0
552 178 5 0.4238 2.9224541627874037 -5.727215724636051 16.38997056824086 0 0 0
553 179 4 -0.8476 7.78069882251037 -8.291918154894091 13.620318724609795 0 0 0
554 179 5 0.4238 8.316786334046595 -9.128408048441111 13.506761128348714 0 0 0
555 179 5 0.4238 7.656410933637846 -8.10540845694991 14.594878698624932 0 0 0
138 40 3 0.4238 2.9269943549435133 12.010590344660404 2.7467498756490567 0 0 0
97 27 2 -0.8476 -1.8068336462667633 12.47556693062429 -3.2790535439875246 0 0 0
98 27 3 0.4238 -1.7143118368766233 12.928030694909939 -4.166024088309959 0 0 0
99 27 3 0.4238 -1.2591221125334424 11.638921833986485 -3.2729259190469064 0 0 0
100 28 2 -0.8476 -2.748688361743834 16.977928424686933 -3.4401154519887855 0 0 0
101 28 3 0.4238 -2.5334261893678476 16.10519491850643 -3.8782922588075146 0 0 0
102 28 3 0.4238 -3.3480636669578883 17.51156556155526 -4.036757002129685 0 0 0
103 29 2 -0.8476 2.2868854299589696 19.243587087850074 -4.583486679909398 0 0 0
104 29 3 0.4238 2.2842094057493205 20.171065844450062 -4.209619745492664 0 0 0
105 29 3 0.4238 2.76109088593693 18.63077075888199 -3.9513586690043137 0 0 0
106 30 2 -0.8476 4.275885956858459 16.789051940764786 -0.6256964684211024 0 0 0
107 30 3 0.4238 4.254084717037442 16.113648936140244 -1.362823307565091 0 0 0
108 30 3 0.4238 4.1850653042104335 17.70698315623257 -1.01190157250755 0 0 0
109 31 2 -0.8476 4.117486483948538 22.02981360048302 3.780797850759306 0 0 0
110 31 3 0.4238 4.211735795679966 21.081776240920252 3.4769183979965272 0 0 0
111 31 3 0.4238 3.3312501663346685 22.44880946160479 3.3266223219955764 0 0 0
112 32 2 -0.8476 -0.3675692697077272 17.35718869073586 6.583907574479869 0 0 0
113 32 3 0.4238 -0.4628519291464638 17.284837314835322 7.576725273211908 0 0 0
114 32 3 0.4238 -1.2741752567760023 17.40534421777936 6.16468553411567 0 0 0
115 33 2 -0.8476 -2.6772930542875555 21.722439718994572 -0.2878227286042192 0 0 0
116 33 3 0.4238 -1.849537612791437 21.16703229740807 -0.20817340456315578 0 0 0
117 33 3 0.4238 -2.9217338252959286 22.0871046382926 0.610658598860182 0 0 0
118 34 2 -0.8476 5.95144461152265 22.33257915271103 -4.456703752776271 0 0 0
119 34 3 0.4238 5.352850835803972 21.541656188629897 -4.329712232350811 0 0 0
120 34 3 0.4238 6.44315458436156 22.518447241913226 -3.606012947767139 0 0 0
121 35 2 -0.8476 5.345366248039553 14.322505667847595 4.359927032959841 0 0 0
122 35 3 0.4238 5.645228432088152 15.18747380868866 3.957542545674909 0 0 0
123 35 3 0.4238 4.422900749856355 14.107712265542002 4.039112929953733 0 0 0
124 36 2 -0.8476 -0.7363559708421161 13.839634742077205 5.8718048897654675 0 0 0
125 36 3 0.4238 -1.4868170098458589 13.203409850944317 6.0507646800547015 0 0 0
126 36 3 0.4238 0.11306229727004591 13.32669920181912 5.747763658565991 0 0 0
127 37 2 -0.8476 0.7722304362965176 11.727995252343202 2.877785727993957 0 0 0
128 37 3 0.4238 0.5504181511720465 12.70306327079078 2.884278744902493 0 0 0
137 40 3 0.4238 4.509284736558078 11.638150843838709 2.5909626910743215 0 0 0
130 38 2 -0.8476 2.3275329993470115 23.739414264371433 1.0085517566226496 0 0 0
131 38 3 0.4238 1.9472779275384726 24.593034123492338 1.3645569618911846 0 0 0
132 38 3 0.4238 1.814782182830989 23.458946616877792 0.19711784768641682 0 0 0
133 39 2 -0.8476 -0.3625365817256634 16.081360610141587 0.5348514056812619 0 0 0
134 39 3 0.4238 -0.04808626106018832 16.637493103224124 1.3041615743851347 0 0 0
135 39 3 0.4238 -1.0820713039090863 16.570622784799212 0.04200985130327228 0 0 0
270 84 3 0.4238 7.801594594932833 21.08368557891493 3.1626511813424822 0 0 0
273 85 3 0.4238 8.204655857171335 12.726957496254789 -2.837243306137383 0 0 0
559 181 4 -0.8476 -9.846444518647706 13.083275854626994 -12.27486133115727 0 0 0
560 181 5 0.4238 -9.753922709257566 13.535739618912643 -13.161831875479704 0 0 0
561 181 5 0.4238 -9.298732984914384 12.24663075798919 -12.268733706216652 0 0 0
562 182 4 -0.8476 -11.791581930131256 20.99999312452621 -12.613184538283349 0 0 0
563 182 5 0.4238 -11.57631975775527 20.127259618345708 -13.051361345102078 0 0 0
564 182 5 0.4238 -12.390957235345311 21.533630261394535 -13.209826088424247 0 0 0
565 183 4 -0.8476 -2.5962327309359 25.14280211812915 -14.143065813182524 0 0 0
566 183 5 0.4238 -2.598908755145549 26.07028087472914 -13.76919887876579 0 0 0
567 183 5 0.4238 -2.1220272749579396 24.529985789161067 -13.51093780227744 0 0 0
568 184 4 -0.8476 0.7955329630533692 20.814894537820532 -7.4744357745426955 0 0 0
569 184 5 0.4238 0.7737317232323517 20.13949153319599 -8.211562613686684 0 0 0
570 184 5 0.4238 0.7047123104053441 21.732825753288317 -7.860640878629143 0 0 0
571 185 4 -0.8476 -2.8869659904338487 22.425765745137088 -11.629817981687593 0 0 0
572 185 5 0.4238 -2.79271667870242 21.47772838557432 -11.933697434450371 0 0 0
573 185 5 0.4238 -3.673202308047718 22.844761606258857 -12.083993510451322 0 0 0