LAMMPS data file via write_data, version 22 Dec 2022, timestep = 0

321 atoms
5 atom types
0 bonds
1 bond types
0 angles
1 angle types

-15.702862486440924 32.40565309930991 xlo xhi
-12.2364939556271675 35.170778766316808 ylo yhi
-15.187079790397998 30.678280868686624 zlo zhi

Masses

1 12.0107
2 15.9994
3 1.00794
4 15.9994
5 1.00794

Atoms # full

1 1 1 0 7.378341 8.235324 6.361027 0 0 0
3 1 2 0 6.990804 6.929188 6.314895 0 0 0
4 1 3 0 7.71063 6.354454 6.631575 0 0 0
5 1 1 0 6.498619 9.232562 5.942876 0 0 0
6 1 1 0 6.887469 10.570362 5.987201 0 0 0
7 1 1 0 8.157308 10.916581 6.450127 0 0 0
9 1 3 0 5.507704 8.968245 5.581026 0 0 0
10 1 3 0 6.196512 11.343266 5.659048 0 0 0
22 2 2 -0.8476 7.450306978876746 0.23204493552148014 -1.4748240071603862 0 0 0
23 2 3 0.4238 8.283892848480498 0.7706930927293729 -1.3523770781115214 0 0 0
24 2 3 0.4238 6.660150544615575 0.8439637189499255 -1.5095903929823626 0 0 0
25 3 2 -0.8476 6.362692946789473 4.381345951160953 0.7545626347943235 0 0 0
26 3 3 0.4238 7.276486113324739 4.458486069396503 0.355774544886844 0 0 0
27 3 3 0.4238 6.379834202248478 3.7160685091940526 1.5009623884593863 0 0 0
28 4 2 -0.8476 0.4422029011183899 6.553277930019071 5.736871188301816 0 0 0
29 4 3 0.4238 0.3556513938459174 5.557615184047763 5.771003615313954 0 0 0
30 4 3 0.4238 1.3029316161658464 6.797915250423585 5.290441854299161 0 0 0
31 5 2 -0.8476 -3.8263549772643533 -1.6228648242600698 6.3609237895158826 0 0 0
32 5 3 0.4238 -3.9731491182874517 -0.7194920474908674 5.957972680752559 0 0 0
33 5 3 0.4238 -3.431624371802713 -2.2337939556271675 5.674663026205804 0 0 0
34 6 2 -0.8476 -4.921712989548233 1.321847221522174 3.2287724267318088 0 0 0
35 6 3 0.4238 -4.165408681616351 1.9369123432085251 3.451705554796327 0 0 0
36 6 3 0.4238 -5.700162486440924 1.8564035594893582 2.8997338392885856 0 0 0
37 7 2 -0.8476 -0.7743067885911762 0.6121628405714997 1.296752701567317 0 0 0
38 7 3 0.4238 0.1332008699428533 1.0290862121301156 1.3477942694339105 0 0 0
39 7 3 0.4238 -1.4519531825369987 1.3144373255704886 1.078563787569313 0 0 0
40 8 2 -0.8476 2.5262326073973322 -0.8198262622148025 3.6782237473710726 0 0 0
41 8 3 0.4238 2.0556894238575016 -1.5026607518735613 4.23708568189217 0 0 0
42 8 3 0.4238 3.146666640042273 -0.2877144953995453 4.2543480121375215 0 0 0
43 9 2 -0.8476 -2.598951266254916 4.7391979845649095 4.783699699579402 0 0 0
44 9 3 0.4238 -2.2819029817356458 3.8518925042202787 4.448782008894403 0 0 0
45 9 3 0.4238 -2.4165199810947784 5.440241273900872 4.094310388397516 0 0 0
46 10 2 -0.8476 5.711982774505943 3.2186184248805105 -3.935659026706887 0 0 0
47 10 3 0.4238 6.458817198810869 3.306656161896002 -3.2765018457292987 0 0 0
48 10 3 0.4238 5.20223525892773 4.077873747232665 -3.9785338569844937 0 0 0
49 11 2 -0.8476 6.5707641481830885 8.928041001061825 -3.1393972715517897 0 0 0
50 11 3 0.4238 7.272406834803328 8.937806163607725 -3.8518596716914635 0 0 0
51 11 3 0.4238 5.805628611341762 9.508934709047788 -3.417121235200683 0 0 0
52 12 2 -0.8476 7.133064644225108 7.742487882918308 0.6781642784533206 0 0 0
53 12 3 0.4238 6.342300520816105 7.157975023413993 0.49640259958982047 0 0 0
54 12 3 0.4238 7.609351656553287 7.935157632388384 -0.1797573608743258 0 0 0
55 13 2 -0.8476 3.9667078669736373 7.00530352344401 -3.14949724101186 0 0 0
56 13 3 0.4238 3.9538731680034855 7.510175047117798 -2.286397881270669 0 0 0
57 13 3 0.4238 3.8240584258327024 7.639939260193855 -3.9090294050985173 0 0 0
58 14 2 -0.8476 7.778787492362845 4.249438504425664 4.354664679628972 0 0 0
63 15 3 0.4238 5.1275714700978865 -0.42710797130602535 4.889282175218571 0 0 0
60 14 3 0.4238 7.479531386818327 4.9792299166393414 3.739969008867013 0 0 0
61 15 2 -0.8476 5.924866153886136 -0.6746104059910993 5.4397948651067844 0 0 0
62 15 3 0.4238 6.700584080865312 -0.8624882199883168 4.837329833365724 0 0 0
129 37 3 0.4238 0.19116645766178797 11.258404982708484 2.2130676515904555 0 0 0
136 40 2 -0.8476 3.5765686985332894 11.28406592777319 2.5226607560635568 0 0 0
64 16 2 -0.8476 1.685892738257461 2.503706724092786 19.71466734006919 0 0 0
65 16 3 0.4238 1.5558566347536875 3.433363786639802 19.369951736212897 0 0 0
66 16 3 0.4238 1.4127041530789626 2.4633424857534347 20.675780868686623 0 0 0
67 17 2 -0.8476 4.5211779257986855 5.956561902833144 11.28680080195065 0 0 0
68 17 3 0.4238 4.515977338548136 6.544279831180929 10.477751310083287 0 0 0
69 17 3 0.4238 5.435033185803457 5.570439941734121 11.412414832292232 0 0 0
70 18 2 -0.8476 -1.300022669855208 9.736303627253177 13.00009015008156 0 0 0
71 18 3 0.4238 -0.4937237577375013 10.32216109402446 12.918520654274989 0 0 0
72 18 3 0.4238 -2.1001456193533414 10.297902256449575 13.21082869679557 0 0 0
73 19 2 -0.8476 -4.601321296172572 11.324120770513062 17.602169957636928 0 0 0
74 19 3 0.4238 -4.787284805299316 11.149529067918186 16.63524917476054 0 0 0
96 26 3 0.4238 -2.230137977540398 3.739692500538502 19.338346061128103 0 0 0
76 20 2 -0.8476 6.1959658740750765 9.650857061522926 13.7334033371329 0 0 0
77 20 3 0.4238 6.832342911263127 10.386363577171883 13.500906193757567 0 0 0
78 20 3 0.4238 5.271206108243661 9.909595791707554 13.454343962264627 0 0 0
79 21 2 -0.8476 -3.28271670685774 -1.1420686888812268 16.255223731996622 0 0 0
80 21 3 0.4238 -2.410819773806018 -0.6674668807504314 16.134603039103652 0 0 0
81 21 3 0.4238 -4.0193379247542405 -0.4705962906693019 16.335936119423845 0 0 0
82 22 2 -0.8476 -0.13556828848883773 0.4227023908007911 13.800351691458967 0 0 0
83 22 3 0.4238 0.1923763076467191 0.39491576527286554 12.856063210640071 0 0 0
84 22 3 0.4238 0.44766416740028736 -0.15357867293621041 14.372837960006686 0 0 0
85 23 2 -0.8476 3.07206666208068 3.142049146601516 10.256092454477677 0 0 0
86 23 3 0.4238 2.572722224183979 3.8640924528082903 9.777230171557402 0 0 0
87 23 3 0.4238 2.696618692798504 3.031039715154121 11.17626429614184 0 0 0
88 24 2 -0.8476 4.434650667852001 9.126092695854156 19.4088585981872 0 0 0
89 24 3 0.4238 5.252412589744026 8.647816801677905 19.72904307290977 0 0 0
90 24 3 0.4238 4.323036721060527 9.976431783180844 19.923121423157124 0 0 0
91 25 2 -0.8476 6.385139116343575 0.3984632740936527 13.5776598016027 0 0 0
92 25 3 0.4238 7.06992662221931 -0.26115969632412767 13.267879075291791 0 0 0
93 25 3 0.4238 6.081275843180482 0.15566078304360365 14.498916851107616 0 0 0
94 26 2 -0.8476 -1.4776875173781536 3.090991515022006 19.224302972378485 0 0 0
95 26 3 0.4238 -0.6113617710508834 3.58893683615534 19.185179474171914 0 0 0
138 40 3 0.4238 2.9269943549435133 12.010590344660404 2.7467498756490567 0 0 0
97 27 2 -0.8476 -1.8068336462667633 12.47556693062429 -3.2790535439875246 0 0 0
98 27 3 0.4238 -1.7143118368766233 12.928030694909939 -4.166024088309959 0 0 0
99 27 3 0.4238 -1.2591221125334424 11.638921833986485 -3.2729259190469064 0 0 0
100 28 2 -0.8476 -2.748688361743834 16.977928424686933 -3.4401154519887855 0 0 0
101 28 3 0.4238 -2.5334261893678476 16.10519491850643 -3.8782922588075146 0 0 0
102 28 3 0.4238 -3.3480636669578883 17.51156556155526 -4.036757002129685 0 0 0
103 29 2 -0.8476 2.2868854299589696 19.243587087850074 -4.583486679909398 0 0 0
104 29 3 0.4238 2.2842094057493205 20.171065844450062 -4.209619745492664 0 0 0
105 29 3 0.4238 2.76109088593693 18.63077075888199 -3.9513586690043137 0 0 0
106 30 2 -0.8476 4.275885956858459 16.789051940764786 -0.6256964684211024 0 0 0
107 30 3 0.4238 4.254084717037442 16.113648936140244 -1.362823307565091 0 0 0
108 30 3 0.4238 4.1850653042104335 17.70698315623257 -1.01190157250755 0 0 0
109 31 2 -0.8476 4.117486483948538 22.02981360048302 3.780797850759306 0 0 0
110 31 3 0.4238 4.211735795679966 21.081776240920252 3.4769183979965272 0 0 0
111 31 3 0.4238 3.3312501663346685 22.44880946160479 3.3266223219955764 0 0 0
112 32 2 -0.8476 -0.3675692697077272 17.35718869073586 6.583907574479869 0 0 0
113 32 3 0.4238 -0.4628519291464638 17.284837314835322 7.576725273211908 0 0 0
114 32 3 0.4238 -1.2741752567760023 17.40534421777936 6.16468553411567 0 0 0
115 33 2 -0.8476 -2.6772930542875555 21.722439718994572 -0.2878227286042192 0 0 0
116 33 3 0.4238 -1.849537612791437 21.16703229740807 -0.20817340456315578 0 0 0
117 33 3 0.4238 -2.9217338252959286 22.0871046382926 0.610658598860182 0 0 0
118 34 2 -0.8476 5.95144461152265 22.33257915271103 -4.456703752776271 0 0 0
119 34 3 0.4238 5.352850835803972 21.541656188629897 -4.329712232350811 0 0 0
120 34 3 0.4238 6.44315458436156 22.518447241913226 -3.606012947767139 0 0 0
121 35 2 -0.8476 5.345366248039553 14.322505667847595 4.359927032959841 0 0 0
122 35 3 0.4238 5.645228432088152 15.18747380868866 3.957542545674909 0 0 0
123 35 3 0.4238 4.422900749856355 14.107712265542002 4.039112929953733 0 0 0
124 36 2 -0.8476 -0.7363559708421161 13.839634742077205 5.8718048897654675 0 0 0
125 36 3 0.4238 -1.4868170098458589 13.203409850944317 6.0507646800547015 0 0 0
126 36 3 0.4238 0.11306229727004591 13.32669920181912 5.747763658565991 0 0 0
127 37 2 -0.8476 0.7722304362965176 11.727995252343202 2.877785727993957 0 0 0
128 37 3 0.4238 0.5504181511720465 12.70306327079078 2.884278744902493 0 0 0
137 40 3 0.4238 4.509284736558078 11.638150843838709 2.5909626910743215 0 0 0
130 38 2 -0.8476 2.3275329993470115 23.739414264371433 1.0085517566226496 0 0 0
131 38 3 0.4238 1.9472779275384726 24.593034123492338 1.3645569618911846 0 0 0
132 38 3 0.4238 1.814782182830989 23.458946616877792 0.19711784768641682 0 0 0
133 39 2 -0.8476 -0.3625365817256634 16.081360610141587 0.5348514056812619 0 0 0
134 39 3 0.4238 -0.04808626106018832 16.637493103224124 1.3041615743851347 0 0 0
135 39 3 0.4238 -1.0820713039090863 16.570622784799212 0.04200985130327228 0 0 0
270 84 3 0.4238 7.801594594932833 21.08368557891493 3.1626511813424822 0 0 0
273 85 3 0.4238 8.204655857171335 12.726957496254789 -2.837243306137383 0 0 0
165 49 3 0.4238 2.3752030380105484 23.88924868459311 16.38593646820674 0 0 0
17 1 3 0 7.945246 12.723996 8.476459 0 0 0
164 49 3 0.4238 3.9065269538260328 24.25915818881321 15.95600891158915 0 0 0
139 41 2 -0.8476 -2.2735806665194414 16.77506310074995 9.22085242681387 0 0 0
140 41 3 0.4238 -1.975594215098888 17.571991468062052 9.74631388291037 0 0 0
141 41 3 0.4238 -2.1737263820391166 15.951407140498523 9.779082191976228 0 0 0
142 42 2 -0.8476 3.094904157688079 12.001078077817848 12.687867997801366 0 0 0
143 42 3 0.4238 4.010841094221296 12.060037643741305 13.08483624285412 0 0 0
144 42 3 0.4238 2.7794798442889936 12.917076084434145 12.439965508722121 0 0 0
145 43 2 -0.8476 -4.113699353511117 22.532896489958517 11.840207292166404 0 0 0
146 43 3 0.4238 -4.939598045179056 22.033013248871566 12.100991850914784 0 0 0
147 43 3 0.4238 -3.8748350663855904 22.31174973281851 10.894671225248556 0 0 0
148 44 2 -0.8476 7.130958582444684 17.14871037594227 16.427494241147652 0 0 0
149 44 3 0.4238 7.9920931877877575 17.52371157435863 16.770746018079574 0 0 0
150 44 3 0.4238 6.883926306187806 17.608108444816008 15.574306712814975 0 0 0
151 45 2 -0.8476 -4.054739891029952 17.145018478615512 13.350844451320048 0 0 0
152 45 3 0.4238 -3.287270855669077 17.632430589487754 12.934405735976107 0 0 0
153 45 3 0.4238 -4.777310134909529 17.796493736873067 13.582086143577433 0 0 0
154 46 2 -0.8476 3.916835120823853 17.646107004512086 15.408688336144309 0 0 0
155 46 3 0.4238 4.745413704819198 18.20595745015589 15.413737925900483 0 0 0
156 46 3 0.4238 3.1132073811254473 18.240402703476587 15.377135715341485 0 0 0
157 47 2 -0.8476 -4.827536702085021 12.630571642240406 14.221853123049234 0 0 0
158 47 3 0.4238 -4.122926341768451 13.112373274255281 13.700900229571946 0 0 0
159 47 3 0.4238 -4.967319191067547 13.091032765942982 15.098458449882473 0 0 0
160 48 2 -0.8476 1.9767703955699982 22.43597420522598 10.19979077157135 0 0 0
161 48 3 0.4238 2.496092924198932 22.323180975257856 9.352688482451665 0 0 0
162 48 3 0.4238 1.4140897076317027 23.260376341937118 10.138536791232116 0 0 0
163 49 2 -0.8476 3.2922968449787207 23.520639481385313 16.234059234128882 0 0 0
75 19 3 0.4238 -5.343925411025351 11.869219620448503 17.991280304585942 0 0 0
2 1 1 0 8.648717 8.578412 6.823574 0 0 0
8 1 1 0 9.036593 9.916826 6.86742 0 0 0
12 1 3 0 10.028232 10.179512 7.228388 0 0 0
13 1 3 0 9.340985 7.80665 7.151082 0 0 0
198 60 3 0.4238 20.092086515060046 9.052234824387009 7.38200939546746 0 0 0
197 60 3 0.4238 21.65843085337407 9.359645630214443 7.037498596373848 0 0 0
168 50 3 0.4238 12.05064316726494 11.108791515155948 4.239139436261033 0 0 0
169 51 2 -0.8476 10.506875869035431 8.886809872908957 1.9236148337536871 0 0 0
170 51 3 0.4238 11.355339718548016 9.321820784350644 2.2250697934026484 0 0 0
171 51 3 0.4238 10.418215181163635 7.991299674968909 2.359735525204434 0 0 0
172 52 2 -0.8476 19.36586950991716 2.430455071415291 5.070381000832868 0 0 0
173 52 3 0.4238 19.575156713416675 3.379194037920587 4.833539852410944 0 0 0
174 52 3 0.4238 18.437874562307393 2.375855162864991 5.438952183777273 0 0 0
175 53 2 -0.8476 13.052572058328204 6.747786257852522 -1.1247372349788618 0 0 0
176 53 3 0.4238 13.466188667648604 7.182206312693789 -1.9248628539575354 0 0 0
177 53 3 0.4238 12.976053704617087 7.416142420999909 -0.3848416542188179 0 0 0
178 54 2 -0.8476 10.184543282543906 3.37912156400535 1.5877978595435251 0 0 0
179 54 3 0.4238 10.32901510102619 2.801420647256363 2.3911595677122697 0 0 0
180 54 3 0.4238 10.406862146645008 4.327309113950264 1.8147674224682886 0 0 0
181 55 2 -0.8476 12.626535193442832 -0.36558539641785226 -4.99838425799719 0 0 0
182 55 3 0.4238 12.028736949113561 -0.9331177691443198 -4.4322175381307645 0 0 0
183 55 3 0.4238 12.177905094206052 0.5085214319920259 -5.184579790397998 0 0 0
184 56 2 -0.8476 10.938995749629228 3.4139885794017415 6.099932968950029 0 0 0
185 56 3 0.4238 10.160888109667463 4.039495463648685 6.157292607135886 0 0 0
186 56 3 0.4238 11.430253838184921 3.5707975304427357 5.243150071710577 0 0 0
187 57 2 -0.8476 13.257661193917286 2.3871542099771546 -1.3148609355960739 0 0 0
188 57 3 0.4238 13.702409088790995 3.2599163840089984 -1.113649635504321 0 0 0
189 57 3 0.4238 12.355643618045818 2.556459380088663 -1.7119762109160646 0 0 0
190 58 2 -0.8476 21.238477145322577 5.951889253838607 2.8607474607743075 0 0 0
191 58 3 0.4238 22.120265212519417 6.418740265572198 2.7936622381646496 0 0 0
192 58 3 0.4238 20.502922415524267 6.629216447285864 2.8744442555889695 0 0 0
193 59 2 -0.8476 20.281957169295946 -0.8470151539018596 4.773385972370975 0 0 0
194 59 3 0.4238 19.34465211390213 -0.6000976452457006 4.527435841750508 0 0 0
195 59 3 0.4238 20.272175693207384 -1.6737887543346766 5.335836171102281 0 0 0
196 60 2 -0.8476 20.868225019595805 8.791435164406844 6.807907445609053 0 0 0
59 14 3 0.4238 8.765679866081449 4.118243207827133 4.260687413513788 0 0 0
221 68 3 0.4238 14.710436907819568 7.2240916792649035 7.686129909649287 0 0 0
199 61 2 -0.8476 19.551614910710665 7.25486875407781 19.238127714591524 0 0 0
200 61 3 0.4238 19.173794216962776 6.336868132872606 19.358655190889365 0 0 0
201 61 3 0.4238 20.037434853601358 7.527056398556729 20.068725908053743 0 0 0
202 62 2 -0.8476 11.427123780515865 6.6117002790526005 13.343513242389383 0 0 0
203 62 3 0.4238 11.62574529546902 7.218510707761357 12.573882755007284 0 0 0
204 62 3 0.4238 10.436888530071522 6.525874003201336 13.45336991651951 0 0 0
205 63 2 -0.8476 10.552715273083388 2.445664659682446 11.513961631258976 0 0 0
206 63 3 0.4238 10.717574949962357 2.9949774977386836 12.333154638178568 0 0 0
207 63 3 0.4238 9.64516733619871 2.65455606412789 11.149651854962519 0 0 0
208 64 2 -0.8476 20.360749299233937 7.144910581139351 10.970199761473362 0 0 0
209 64 3 0.4238 20.81970624480287 6.302303111505962 10.688469990359174 0 0 0
210 64 3 0.4238 20.155960591196276 7.698771169888076 10.163167839557516 0 0 0
211 65 2 -0.8476 10.29504344231663 -0.08936923967290111 13.563087277207918 0 0 0
212 65 3 0.4238 10.85393244127332 -0.615864543513303 12.922426468683478 0 0 0
213 65 3 0.4238 10.41181319374825 0.8872566062917815 13.38262323135843 0 0 0
214 66 2 -0.8476 12.31242294858987 9.93831364410818 11.766902909957606 0 0 0
215 66 3 0.4238 12.906355826200722 10.733213666626343 11.890911703168076 0 0 0
216 66 3 0.4238 11.356035047295757 10.224380494518254 11.825965834493251 0 0 0
217 67 2 -0.8476 19.034112124024425 3.711719152269509 16.75183554896607 0 0 0
218 67 3 0.4238 19.664722118745956 4.124205619060662 17.409244431604158 0 0 0
219 67 3 0.4238 18.092308716745716 3.903795815701615 17.027722096486986 0 0 0
220 68 2 -0.8476 14.583459701449572 6.573752654793488 8.435086805613292 0 0 0
243 75 3 0.4238 14.36333085610891 2.957676533265744 18.219284712386067 0 0 0
222 68 3 0.4238 14.374424229404049 5.6704912462404415 8.060355583341286 0 0 0
223 69 2 -0.8476 19.93556360342634 -1.6259886735331306 14.41304841091381 0 0 0
224 69 3 0.4238 20.526654012959522 -1.51933094985492 13.613525586075346 0 0 0
225 69 3 0.4238 19.475076090512385 -0.7593485377474276 14.605107295622796 0 0 0
226 70 2 -0.8476 14.839071230789932 -0.17292450651570465 10.453367097743795 0 0 0
227 70 3 0.4238 14.582306830157004 -1.128718978643312 10.310086047643225 0 0 0
228 70 3 0.4238 15.122855196723137 0.23000514592653198 9.583243632043668 0 0 0
229 71 2 -0.8476 13.952363046680567 -0.3891638376046993 18.92525975122602 0 0 0
230 71 3 0.4238 14.017755013345283 -1.343669765468188 19.21619413226267 0 0 0
231 71 3 0.4238 13.383626541969718 0.11835934253850677 19.57253055971858 0 0 0
232 72 2 -0.8476 17.886390290847352 6.959849291556694 16.327099976859497 0 0 0
233 72 3 0.4238 18.590003675575105 7.670412928733212 16.332392618395602 0 0 0
234 72 3 0.4238 16.989959919158498 7.379492738742853 16.18457820432105 0 0 0
235 73 2 -0.8476 20.84833074412605 9.765946714491964 12.581035680009688 0 0 0
236 73 3 0.4238 21.71838847985618 10.252971795277247 12.65723670941379 0 0 0
237 73 3 0.4238 20.095590708382993 10.424114752593043 12.595098464645707 0 0 0
238 74 2 -0.8476 11.38291402477056 2.166761688244747 19.213230887959817 0 0 0
239 74 3 0.4238 11.940914105114752 2.9681996578967826 18.997978522500343 0 0 0
240 74 3 0.4238 10.777231758185632 2.3785774621938054 19.980227341374633 0 0 0
241 75 2 -0.8476 15.058028796046631 2.242584501920965 18.141575969933992 0 0 0
242 75 3 0.4238 15.894510601826415 2.631097639648406 17.755109645252826 0 0 0
11 1 1 0 8.568229 12.331763 6.495793 0 0 0
15 1 3 0 9.024318 12.71101 5.581483 0 0 0
244 76 2 -0.8476 20.43812939487869 23.2753256736583 -4.011096386842363 0 0 0
245 76 3 0.4238 20.05664069544975 23.091348505912443 -3.1052160064078222 0 0 0
246 76 3 0.4238 21.40838931240297 23.03340752731454 -4.019569439148235 0 0 0
247 77 2 -0.8476 20.091266065384787 21.696693896833718 4.137469170523153 0 0 0
248 77 3 0.4238 20.500556550438073 22.569210064376332 3.870640900053937 0 0 0
249 77 3 0.4238 19.1809436943273 21.617470732539125 3.731221265062182 0 0 0
250 78 2 -0.8476 16.163512418573116 12.803821360186326 2.3853532450437496 0 0 0
251 78 3 0.4238 15.911635862694975 11.97245069641849 1.8899932651047235 0 0 0
252 78 3 0.4238 16.97756686101397 13.20712427796108 1.9674266833649308 0 0 0
253 79 2 -0.8476 15.944148802483186 24.20215230320758 3.1960843510883397 0 0 0
254 79 3 0.4238 15.725091377738542 25.008387026052517 2.64653917001276 0 0 0
255 79 3 0.4238 15.255392433290318 24.08979596777512 3.912318396275001 0 0 0
256 80 2 -0.8476 18.292312145726747 15.365911457613636 5.372059416814873 0 0 0
257 80 3 0.4238 18.769851553036894 16.244494310172026 5.3650754812313455 0 0 0
258 80 3 0.4238 18.858720024734165 14.682335059776975 5.8323918104381915 0 0 0
259 81 2 -0.8476 8.809142504531156 13.159048487263814 1.2010479659795934 0 0 0
260 81 3 0.4238 9.8058285674117 13.126508103708463 1.2756033494052805 0 0 0
261 81 3 0.4238 8.543249585278286 13.92902932480117 0.6210212812344394 0 0 0
262 82 2 -0.8476 9.352188909222999 22.376615393974166 6.844990872274673 0 0 0
263 82 3 0.4238 9.123001120670796 22.023807519121103 5.937797369916871 0 0 0
264 82 3 0.4238 9.682186569211918 21.628078256674055 7.420137973618659 0 0 0
265 83 2 -0.8476 13.902048660543636 21.729467629771037 -0.5737766245970948 0 0 0
266 83 3 0.4238 14.506036826554578 22.517959576151164 -0.45767651472454995 0 0 0
267 83 3 0.4238 12.964154601489525 21.991741688200705 -0.34669174626779337 0 0 0
268 84 2 -0.8476 8.551876356493224 20.4486678259284 2.9787212453294143 0 0 0
269 84 3 0.4238 9.418081419328733 20.94834187097033 2.9748318328336936 0 0 0
291 91 3 0.4238 18.939439720237687 23.753026946302157 0.07082019080671936 0 0 0
271 85 2 -0.8476 8.974193671423297 12.09446353172862 -2.925353617533287 0 0 0
272 85 3 0.4238 9.829803593409792 12.61160050039892 -2.9477479635330273 0 0 0
290 91 3 0.4238 17.317929304009283 23.853098905087002 0.2360874093582318 0 0 0
274 86 2 -0.8476 13.0804902851947 22.742428510792923 -3.327917312711075 0 0 0
275 86 3 0.4238 14.04540150084097 22.815468104249376 -3.075703012149529 0 0 0
276 86 3 0.4238 12.646476736684908 23.639864749796626 -3.248917778960402 0 0 0
277 87 2 -0.8476 21.011105370791125 13.380016489581537 -1.836966123898387 0 0 0
278 87 3 0.4238 20.542518129312093 13.849523906042288 -2.5852904337476827 0 0 0
279 87 3 0.4238 20.545367784089777 12.516973036149926 -1.6414028668114713 0 0 0
280 88 2 -0.8476 18.76493683585045 17.591930463476217 0.9816197509280349 0 0 0
281 88 3 0.4238 18.024100693777775 18.03660444052998 1.4850354384369417 0 0 0
282 88 3 0.4238 19.16113171699235 16.86599304803832 1.5437985256290154 0 0 0
283 89 2 -0.8476 21.80372818427948 20.882397381530783 6.845317600136155 0 0 0
284 89 3 0.4238 22.402953099309908 21.63954467195229 7.105429059926274 0 0 0
285 89 3 0.4238 20.876959398494932 21.2270017376591 6.6958253089207656 0 0 0
286 90 2 -0.8476 12.501029551025676 24.24721175054361 3.5077998042922407 0 0 0
287 90 3 0.4238 12.31951535606546 25.168078766316807 3.8528462156471646 0 0 0
288 90 3 0.4238 12.39775708913357 23.5863600316804 4.25117742972247 0 0 0
289 91 2 -0.8476 18.180621942209964 23.708047390368712 0.7205685336265361 0 0 0
20 1 3 0 8.434142 15.084489 6.719132 0 0 0
14 1 1 0 8.403466 13.116211 7.571283 0 0 0
166 50 2 -0.8476 11.430898907380465 11.80463320860936 4.602074526452288 0 0 0
167 50 3 0.4238 10.48617393795527 11.489599055814606 4.511252148056559 0 0 0
16 1 1 0 8.81997 14.568064 7.602599 0 0 0
18 1 2 0 10.243909 14.668732 7.621799 0 0 0
320 101 3 0.4238 14.453062228720826 24.10780242696214 7.134394342043286 0 0 0
319 101 2 -0.8476 13.890539325053991 23.505121384630332 7.700383771064779 0 0 0
321 101 3 0.4238 14.412085580451826 23.22074113551946 8.504820137159781 0 0 0
318 100 3 0.4238 20.734912637347954 19.199842417617294 10.48735337229063 0 0 0
21 1 3 0 10.57362 14.249738 8.437487 0 0 0
292 92 2 -0.8476 12.142779825231754 21.55845200655821 19.52676612240536 0 0 0
293 92 3 0.4238 12.98339311056051 22.0992781273115 19.55637864238836 0 0 0
294 92 3 0.4238 11.35433093460577 22.17081964600202 19.468846257655258 0 0 0
295 93 2 -0.8476 9.039791741899997 17.456181728628266 12.066443219776108 0 0 0
296 93 3 0.4238 8.508430874833424 16.656217891156476 11.787670951808739 0 0 0
297 93 3 0.4238 8.829940827320973 17.68060460233309 13.018072063973475 0 0 0
298 94 2 -0.8476 16.389324609462374 17.60136222523752 18.238860740217003 0 0 0
299 94 3 0.4238 16.56412175878125 18.442083581612323 17.726382401918393 0 0 0
300 94 3 0.4238 15.492957072983607 17.659190899188836 18.67838499861012 0 0 0
301 95 2 -0.8476 9.204320074052138 14.938735201230354 18.63352559396497 0 0 0
302 95 3 0.4238 8.55396501365169 14.218187158693032 18.393006772441236 0 0 0
303 95 3 0.4238 9.520679068245336 15.393646677774155 17.80107558044956 0 0 0
304 96 2 -0.8476 20.35786655915241 14.016885456855274 8.652690124864538 0 0 0
305 96 3 0.4238 20.327515870462378 14.331786886601263 9.601329368697499 0 0 0
306 96 3 0.4238 20.141482983996436 14.778334220426279 8.041646412386532 0 0 0
307 97 2 -0.8476 10.398076985257042 15.269531037006546 15.389228565613298 0 0 0
308 97 3 0.4238 10.636886254412092 16.05440221439289 14.817435021076632 0 0 0
309 97 3 0.4238 9.95503465156975 14.570624800618178 14.827762580002087 0 0 0
310 98 2 -0.8476 16.210402110892577 17.109887302640022 10.950630532056397 0 0 0
311 98 3 0.4238 16.758270323713315 17.048693857507523 10.11630669004214 0 0 0
312 98 3 0.4238 15.376409249268745 17.629279720825206 10.76438361961961 0 0 0
313 99 2 -0.8476 10.362396549434822 23.632028034362538 14.512498487232136 0 0 0
314 99 3 0.4238 10.55936943251337 22.65365388443985 14.575634814293423 0 0 0
315 99 3 0.4238 9.443144434992464 23.763695602720595 14.141500251069306 0 0 0
316 100 2 -0.8476 20.754964645093953 19.586327536403765 11.409431275529808 0 0 0
317 100 3 0.4238 21.169329128735022 20.495982696522507 11.380620616630454 0 0 0
19 1 3 0 8.411068 15.052896 8.493378 0 0 0

Velocities

1 0 0 0
3 0 0 0
4 0 0 0
5 0 0 0
6 0 0 0
7 0 0 0
9 0 0 0
10 0 0 0
22 0 0 0
23 0 0 0
24 0 0 0
25 0 0 0
26 0 0 0
27 0 0 0
28 0 0 0
29 0 0 0
30 0 0 0
31 0 0 0
32 0 0 0
33 0 0 0
34 0 0 0
35 0 0 0
36 0 0 0
37 0 0 0
38 0 0 0
39 0 0 0
40 0 0 0
41 0 0 0
42 0 0 0
43 0 0 0
44 0 0 0
45 0 0 0
46 0 0 0
47 0 0 0
48 0 0 0
49 0 0 0
50 0 0 0
51 0 0 0
52 0 0 0
53 0 0 0
54 0 0 0
55 0 0 0
56 0 0 0
57 0 0 0
58 0 0 0
63 0 0 0
60 0 0 0
61 0 0 0
62 0 0 0
129 0 0 0
136 0 0 0
64 0 0 0
65 0 0 0
66 0 0 0
67 0 0 0
68 0 0 0
69 0 0 0
70 0 0 0
71 0 0 0
72 0 0 0
73 0 0 0
74 0 0 0
96 0 0 0
76 0 0 0
77 0 0 0
78 0 0 0
79 0 0 0
80 0 0 0
81 0 0 0
82 0 0 0
83 0 0 0
84 0 0 0
85 0 0 0
86 0 0 0
87 0 0 0
88 0 0 0
89 0 0 0
90 0 0 0
91 0 0 0
92 0 0 0
93 0 0 0
94 0 0 0
95 0 0 0
138 0 0 0
97 0 0 0
98 0 0 0
99 0 0 0
100 0 0 0
101 0 0 0
102 0 0 0
103 0 0 0
104 0 0 0
105 0 0 0
106 0 0 0
107 0 0 0
108 0 0 0
109 0 0 0
110 0 0 0
111 0 0 0
112 0 0 0
113 0 0 0
114 0 0 0
115 0 0 0
116 0 0 0
117 0 0 0
118 0 0 0
119 0 0 0
120 0 0 0
121 0 0 0
122 0 0 0
123 0 0 0
124 0 0 0
125 0 0 0
126 0 0 0
127 0 0 0
128 0 0 0
137 0 0 0
130 0 0 0
131 0 0 0
132 0 0 0
133 0 0 0
134 0 0 0
135 0 0 0
270 0 0 0
273 0 0 0
165 0 0 0
17 0 0 0
164 0 0 0
139 0 0 0
140 0 0 0
141 0 0 0
142 0 0 0
143 0 0 0
144 0 0 0
145 0 0 0
146 0 0 0
147 0 0 0
148 0 0 0
149 0 0 0
150 0 0 0
151 0 0 0
152 0 0 0
153 0 0 0
154 0 0 0
155 0 0 0
156 0 0 0
157 0 0 0
158 0 0 0
159 0 0 0
160 0 0 0
161 0 0 0
162 0 0 0
163 0 0 0
75 0 0 0
2 0 0 0
8 0 0 0
12 0 0 0
13 0 0 0
198 0 0 0
197 0 0 0
168 0 0 0
169 0 0 0
170 0 0 0
171 0 0 0
172 0 0 0
173 0 0 0
174 0 0 0
175 0 0 0
176 0 0 0
177 0 0 0
178 0 0 0
179 0 0 0
180 0 0 0
181 0 0 0
182 0 0 0
183 0 0 0
184 0 0 0
185 0 0 0
186 0 0 0
187 0 0 0
188 0 0 0
189 0 0 0
190 0 0 0
191 0 0 0
192 0 0 0
193 0 0 0
194 0 0 0
195 0 0 0
196 0 0 0
59 0 0 0
221 0 0 0
199 0 0 0
200 0 0 0
201 0 0 0
202 0 0 0
203 0 0 0
204 0 0 0
205 0 0 0
206 0 0 0
207 0 0 0
208 0 0 0
209 0 0 0
210 0 0 0
211 0 0 0
212 0 0 0
213 0 0 0
214 0 0 0
215 0 0 0
216 0 0 0
217 0 0 0
218 0 0 0
219 0 0 0
220 0 0 0
243 0 0 0
222 0 0 0
223 0 0 0
224 0 0 0
225 0 0 0
226 0 0 0
227 0 0 0
228 0 0 0
229 0 0 0
230 0 0 0
231 0 0 0
232 0 0 0
233 0 0 0
234 0 0 0
235 0 0 0
236 0 0 0
237 0 0 0
238 0 0 0
239 0 0 0
240 0 0 0
241 0 0 0
242 0 0 0
11 0 0 0
15 0 0 0
244 0 0 0
245 0 0 0
246 0 0 0
247 0 0 0
248 0 0 0
249 0 0 0
250 0 0 0
251 0 0 0
252 0 0 0
253 0 0 0
254 0 0 0
255 0 0 0
256 0 0 0
257 0 0 0
258 0 0 0
259 0 0 0
260 0 0 0
261 0 0 0
262 0 0 0
263 0 0 0
264 0 0 0
265 0 0 0
266 0 0 0
267 0 0 0
268 0 0 0
269 0 0 0
291 0 0 0
271 0 0 0
272 0 0 0
290 0 0 0
274 0 0 0
275 0 0 0
276 0 0 0
277 0 0 0
278 0 0 0
279 0 0 0
280 0 0 0
281 0 0 0
282 0 0 0
283 0 0 0
284 0 0 0
285 0 0 0
286 0 0 0
287 0 0 0
288 0 0 0
289 0 0 0
20 0 0 0
14 0 0 0
166 0 0 0
167 0 0 0
16 0 0 0
18 0 0 0
320 0 0 0
319 0 0 0
321 0 0 0
318 0 0 0
21 0 0 0
292 0 0 0
293 0 0 0
294 0 0 0
295 0 0 0
296 0 0 0
297 0 0 0
298 0 0 0
299 0 0 0
300 0 0 0
301 0 0 0
302 0 0 0
303 0 0 0
304 0 0 0
305 0 0 0
306 0 0 0
307 0 0 0
308 0 0 0
309 0 0 0
310 0 0 0
311 0 0 0
312 0 0 0
313 0 0 0
314 0 0 0
315 0 0 0
316 0 0 0
317 0 0 0
19 0 0 0
