# LAMMPS data file written by OVITO Basic 3.8.4

21 atoms
5 atom types
1 bond types
1 angle types

-5.0 22.0 xlo xhi
-2.0 25.0 ylo yhi
-5.0 20.0 zlo zhi

Masses

1 12.0107  # C
2 15.9994  # O
3 1.00794  # H
4 15.9994  # O (water)
5 1.00794  # H (water)

Atoms  # full

1 1 1 0.0 7.378341 8.235324 6.361027
2 1 1 0.0 8.648717 8.578412 6.823574
3 1 2 0.0 6.990804 6.929188 6.314895
4 1 3 0.0 7.71063 6.354454 6.631575
5 1 1 0.0 6.498619 9.232562 5.942876
6 1 1 0.0 6.887469 10.570362 5.987201
7 1 1 0.0 8.157308 10.916581 6.450127
8 1 1 0.0 9.036593 9.916826 6.86742
9 1 3 0.0 5.507704 8.968245 5.581026
10 1 3 0.0 6.196512 11.343266 5.659048
11 1 1 0.0 8.568229 12.331763 6.495793
12 1 3 0.0 10.028232 10.179512 7.228388
13 1 3 0.0 9.340985 7.80665 7.151082
14 1 1 0.0 8.403466 13.116211 7.571283
15 1 3 0.0 9.024318 12.71101 5.581483
16 1 1 0.0 8.81997 14.568064 7.602599
17 1 3 0.0 7.945246 12.723996 8.476459
18 1 2 0.0 10.243909 14.668732 7.621799
19 1 3 0.0 8.411068 15.052896 8.493378
20 1 3 0.0 8.434142 15.084489 6.719132
21 1 3 0.0 10.57362 14.249738 8.437487
