# LAMMPS data file written by Ovito Basic 3.0.0-dev791
32 atoms
2 atom types
0.0 3.5058000088 xlo xhi
0.0 3.5058000088 ylo yhi
0.0 28.0463790894 zlo zhi

Atoms  # charge

1 1 0.0 0.0 0.0 0.876449347
2 1 0.0 0.0 0.0 11.393841743
3 1 0.0 0.0 0.0 7.888044357
4 1 0.0 0.0 0.0 4.382246971
5 1 0.0 0.0 1.752900004 13.14673996
6 1 0.0 0.0 1.752900004 9.640942574
7 1 0.0 0.0 1.752900004 6.135145187
8 1 0.0 0.0 1.752900004 2.62934804
9 1 0.0 1.752900004 0.0 13.14673996
10 1 0.0 1.752900004 0.0 9.640942574
11 1 0.0 1.752900004 0.0 6.135145187
12 1 0.0 1.752900004 0.0 2.62934804
13 1 0.0 1.752900004 1.752900004 0.876449347
14 1 0.0 1.752900004 1.752900004 11.393841743
15 1 0.0 1.752900004 1.752900004 7.888044357
16 1 0.0 1.752900004 1.752900004 4.382246971
17 2 0.0 0.0 0.0 14.964473724
18 2 0.0 0.0 0.0 25.52763176
19 2 0.0 0.0 0.0 22.006578445
20 2 0.0 0.0 0.0 18.485527039
21 2 0.0 0.0 1.760524988 27.288158417
22 2 0.0 0.0 1.760524988 23.767105103
23 2 0.0 0.0 1.760524988 20.246051788
24 2 0.0 0.0 1.760524988 16.725000381
25 2 0.0 1.760524988 0.0 27.288158417
26 2 0.0 1.760524988 0.0 23.767105103
27 2 0.0 1.760524988 0.0 20.246051788
28 2 0.0 1.760524988 0.0 16.725000381
29 2 0.0 1.760524988 1.760524988 14.964473724
30 2 0.0 1.760524988 1.760524988 25.52763176
31 2 0.0 1.760524988 1.760524988 22.006578445
32 2 0.0 1.760524988 1.760524988 18.485527039
