# LAMMPS data file written by Ovito Basic 3.0.0-dev791
700 atoms
2 atom types
0.0 19.0516452789 xlo xhi
0.0 19.0516452789 ylo yhi
0.0 22.720413208 zlo zhi

Atoms  # charge

1 1 0.0 0.0 0.0 22.010398865
2 1 0.0 0.0 0.0 19.170345306
3 1 0.0 0.0 0.0 16.330295563
4 1 0.0 0.0 0.0 13.490243912
5 1 0.0 0.0 6.350548267 22.010398865
6 1 0.0 0.0 6.350548267 19.170345306
7 1 0.0 0.0 6.350548267 16.330295563
8 1 0.0 0.0 6.350548267 13.490243912
9 1 0.0 0.0 12.701096535 22.010398865
10 1 0.0 0.0 12.701096535 19.170345306
11 1 0.0 0.0 12.701096535 16.330295563
12 1 0.0 0.0 12.701096535 13.490243912
13 1 0.0 6.350548267 0.0 22.010398865
14 1 0.0 6.350548267 0.0 19.170345306
15 1 0.0 6.350548267 0.0 16.330295563
16 1 0.0 6.350548267 0.0 13.490243912
17 1 0.0 6.350548267 6.350548267 22.010398865
18 1 0.0 6.350548267 6.350548267 19.170345306
19 1 0.0 6.350548267 6.350548267 16.330295563
20 1 0.0 6.350548267 6.350548267 13.490243912
21 1 0.0 6.350548267 12.701096535 22.010398865
22 1 0.0 6.350548267 12.701096535 19.170345306
23 1 0.0 6.350548267 12.701096535 16.330295563
24 1 0.0 6.350548267 12.701096535 13.490243912
25 1 0.0 12.701096535 0.0 22.010398865
26 1 0.0 12.701096535 0.0 19.170345306
27 1 0.0 12.701096535 0.0 16.330295563
28 1 0.0 12.701096535 0.0 13.490243912
29 1 0.0 12.701096535 6.350548267 22.010398865
30 1 0.0 12.701096535 6.350548267 19.170345306
31 1 0.0 12.701096535 6.350548267 16.330295563
32 1 0.0 12.701096535 6.350548267 13.490243912
33 1 0.0 12.701096535 12.701096535 22.010398865
34 1 0.0 12.701096535 12.701096535 19.170345306
35 1 0.0 12.701096535 12.701096535 16.330295563
36 1 0.0 12.701096535 12.701096535 13.490243912
37 1 0.0 3.810328722 1.270109653 22.010398865
38 1 0.0 3.810328722 1.270109653 19.170345306
39 1 0.0 3.810328722 1.270109653 16.330295563
40 1 0.0 3.810328722 1.270109653 13.490243912
41 1 0.0 3.810328722 7.620657444 22.010398865
42 1 0.0 3.810328722 7.620657444 19.170345306
43 1 0.0 3.810328722 7.620657444 16.330295563
44 1 0.0 3.810328722 7.620657444 13.490243912
45 1 0.0 3.810328722 13.971205711 22.010398865
46 1 0.0 3.810328722 13.971205711 19.170345306
47 1 0.0 3.810328722 13.971205711 16.330295563
48 1 0.0 3.810328722 13.971205711 13.490243912
49 1 0.0 10.160877228 1.270109653 22.010398865
50 1 0.0 10.160877228 1.270109653 19.170345306
51 1 0.0 10.160877228 1.270109653 16.330295563
52 1 0.0 10.160877228 1.270109653 13.490243912
53 1 0.0 10.160877228 7.620657444 22.010398865
54 1 0.0 10.160877228 7.620657444 19.170345306
55 1 0.0 10.160877228 7.620657444 16.330295563
56 1 0.0 10.160877228 7.620657444 13.490243912
57 1 0.0 10.160877228 13.971205711 22.010398865
58 1 0.0 10.160877228 13.971205711 19.170345306
59 1 0.0 10.160877228 13.971205711 16.330295563
60 1 0.0 10.160877228 13.971205711 13.490243912
61 1 0.0 16.511426926 1.270109653 22.010398865
62 1 0.0 16.511426926 1.270109653 19.170345306
63 1 0.0 16.511426926 1.270109653 16.330295563
64 1 0.0 16.511426926 1.270109653 13.490243912
65 1 0.0 16.511426926 7.620657444 22.010398865
66 1 0.0 16.511426926 7.620657444 19.170345306
67 1 0.0 16.511426926 7.620657444 16.330295563
68 1 0.0 16.511426926 7.620657444 13.490243912
69 1 0.0 16.511426926 13.971205711 22.010398865
70 1 0.0 16.511426926 13.971205711 19.170345306
71 1 0.0 16.511426926 13.971205711 16.330295563
72 1 0.0 16.511426926 13.971205711 13.490243912
73 1 0.0 5.080438614 3.810328722 22.010398865
74 1 0.0 5.080438614 3.810328722 19.170345306
75 1 0.0 5.080438614 3.810328722 16.330295563
76 1 0.0 5.080438614 3.810328722 13.490243912
77 1 0.0 5.080438614 10.160877228 22.010398865
78 1 0.0 5.080438614 10.160877228 19.170345306
79 1 0.0 5.080438614 10.160877228 16.330295563
80 1 0.0 5.080438614 10.160877228 13.490243912
81 1 0.0 5.080438614 16.511426926 22.010398865
82 1 0.0 5.080438614 16.511426926 19.170345306
83 1 0.0 5.080438614 16.511426926 16.330295563
84 1 0.0 5.080438614 16.511426926 13.490243912
85 1 0.0 11.430986404 3.810328722 22.010398865
86 1 0.0 11.430986404 3.810328722 19.170345306
87 1 0.0 11.430986404 3.810328722 16.330295563
88 1 0.0 11.430986404 3.810328722 13.490243912
89 1 0.0 11.430986404 10.160877228 22.010398865
90 1 0.0 11.430986404 10.160877228 19.170345306
91 1 0.0 11.430986404 10.160877228 16.330295563
92 1 0.0 11.430986404 10.160877228 13.490243912
93 1 0.0 11.430986404 16.511426926 22.010398865
94 1 0.0 11.430986404 16.511426926 19.170345306
95 1 0.0 11.430986404 16.511426926 16.330295563
96 1 0.0 11.430986404 16.511426926 13.490243912
97 1 0.0 17.781534195 3.810328722 22.010398865
98 1 0.0 17.781534195 3.810328722 19.170345306
99 1 0.0 17.781534195 3.810328722 16.330295563
100 1 0.0 17.781534195 3.810328722 13.490243912
101 1 0.0 17.781534195 10.160877228 22.010398865
102 1 0.0 17.781534195 10.160877228 19.170345306
103 1 0.0 17.781534195 10.160877228 16.330295563
104 1 0.0 17.781534195 10.160877228 13.490243912
105 1 0.0 17.781534195 16.511426926 22.010398865
106 1 0.0 17.781534195 16.511426926 19.170345306
107 1 0.0 17.781534195 16.511426926 16.330295563
108 1 0.0 17.781534195 16.511426926 13.490243912
109 1 0.0 1.270109653 2.540219307 22.010398865
110 1 0.0 1.270109653 2.540219307 19.170345306
111 1 0.0 1.270109653 2.540219307 16.330295563
112 1 0.0 1.270109653 2.540219307 13.490243912
113 1 0.0 1.270109653 8.890767097 22.010398865
114 1 0.0 1.270109653 8.890767097 19.170345306
115 1 0.0 1.270109653 8.890767097 16.330295563
116 1 0.0 1.270109653 8.890767097 13.490243912
117 1 0.0 1.270109653 15.241314888 22.010398865
118 1 0.0 1.270109653 15.241314888 19.170345306
119 1 0.0 1.270109653 15.241314888 16.330295563
120 1 0.0 1.270109653 15.241314888 13.490243912
121 1 0.0 7.620657444 2.540219307 22.010398865
122 1 0.0 7.620657444 2.540219307 19.170345306
123 1 0.0 7.620657444 2.540219307 16.330295563
124 1 0.0 7.620657444 2.540219307 13.490243912
125 1 0.0 7.620657444 8.890767097 22.010398865
126 1 0.0 7.620657444 8.890767097 19.170345306
127 1 0.0 7.620657444 8.890767097 16.330295563
128 1 0.0 7.620657444 8.890767097 13.490243912
129 1 0.0 7.620657444 15.241314888 22.010398865
130 1 0.0 7.620657444 15.241314888 19.170345306
131 1 0.0 7.620657444 15.241314888 16.330295563
132 1 0.0 7.620657444 15.241314888 13.490243912
133 1 0.0 13.971205711 2.540219307 22.010398865
134 1 0.0 13.971205711 2.540219307 19.170345306
135 1 0.0 13.971205711 2.540219307 16.330295563
136 1 0.0 13.971205711 2.540219307 13.490243912
137 1 0.0 13.971205711 8.890767097 22.010398865
138 1 0.0 13.971205711 8.890767097 19.170345306
139 1 0.0 13.971205711 8.890767097 16.330295563
140 1 0.0 13.971205711 8.890767097 13.490243912
141 1 0.0 13.971205711 15.241314888 22.010398865
142 1 0.0 13.971205711 15.241314888 19.170345306
143 1 0.0 13.971205711 15.241314888 16.330295563
144 1 0.0 13.971205711 15.241314888 13.490243912
145 1 0.0 2.540219307 5.080438614 22.010398865
146 1 0.0 2.540219307 5.080438614 19.170345306
147 1 0.0 2.540219307 5.080438614 16.330295563
148 1 0.0 2.540219307 5.080438614 13.490243912
149 1 0.0 2.540219307 11.430986404 22.010398865
150 1 0.0 2.540219307 11.430986404 19.170345306
151 1 0.0 2.540219307 11.430986404 16.330295563
152 1 0.0 2.540219307 11.430986404 13.490243912
153 1 0.0 2.540219307 17.781534195 22.010398865
154 1 0.0 2.540219307 17.781534195 19.170345306
155 1 0.0 2.540219307 17.781534195 16.330295563
156 1 0.0 2.540219307 17.781534195 13.490243912
157 1 0.0 8.890767097 5.080438614 22.010398865
158 1 0.0 8.890767097 5.080438614 19.170345306
159 1 0.0 8.890767097 5.080438614 16.330295563
160 1 0.0 8.890767097 5.080438614 13.490243912
161 1 0.0 8.890767097 11.430986404 22.010398865
162 1 0.0 8.890767097 11.430986404 19.170345306
163 1 0.0 8.890767097 11.430986404 16.330295563
164 1 0.0 8.890767097 11.430986404 13.490243912
165 1 0.0 8.890767097 17.781534195 22.010398865
166 1 0.0 8.890767097 17.781534195 19.170345306
167 1 0.0 8.890767097 17.781534195 16.330295563
168 1 0.0 8.890767097 17.781534195 13.490243912
169 1 0.0 15.241314888 5.080438614 22.010398865
170 1 0.0 15.241314888 5.080438614 19.170345306
171 1 0.0 15.241314888 5.080438614 16.330295563
172 1 0.0 15.241314888 5.080438614 13.490243912
173 1 0.0 15.241314888 11.430986404 22.010398865
174 1 0.0 15.241314888 11.430986404 19.170345306
175 1 0.0 15.241314888 11.430986404 16.330295563
176 1 0.0 15.241314888 11.430986404 13.490243912
177 1 0.0 15.241314888 17.781534195 22.010398865
178 1 0.0 15.241314888 17.781534195 19.170345306
179 1 0.0 15.241314888 17.781534195 16.330295563
180 1 0.0 15.241314888 17.781534195 13.490243912
181 1 0.0 1.905164361 0.635054827 20.590373993
182 1 0.0 1.905164361 0.635054827 17.750322342
183 1 0.0 1.905164361 0.635054827 14.910269737
184 1 0.0 1.905164361 0.635054827 12.070218086
185 1 0.0 1.905164361 6.985602856 20.590373993
186 1 0.0 1.905164361 6.985602856 17.750322342
187 1 0.0 1.905164361 6.985602856 14.910269737
188 1 0.0 1.905164361 6.985602856 12.070218086
189 1 0.0 1.905164361 13.336151123 20.590373993
190 1 0.0 1.905164361 13.336151123 17.750322342
191 1 0.0 1.905164361 13.336151123 14.910269737
192 1 0.0 1.905164361 13.336151123 12.070218086
193 1 0.0 8.255713463 0.635054827 20.590373993
194 1 0.0 8.255713463 0.635054827 17.750322342
195 1 0.0 8.255713463 0.635054827 14.910269737
196 1 0.0 8.255713463 0.635054827 12.070218086
197 1 0.0 8.255713463 6.985602856 20.590373993
198 1 0.0 8.255713463 6.985602856 17.750322342
199 1 0.0 8.255713463 6.985602856 14.910269737
200 1 0.0 8.255713463 6.985602856 12.070218086
201 1 0.0 8.255713463 13.336151123 20.590373993
202 1 0.0 8.255713463 13.336151123 17.750322342
203 1 0.0 8.255713463 13.336151123 14.910269737
204 1 0.0 8.255713463 13.336151123 12.070218086
205 1 0.0 14.606261253 0.635054827 20.590373993
206 1 0.0 14.606261253 0.635054827 17.750322342
207 1 0.0 14.606261253 0.635054827 14.910269737
208 1 0.0 14.606261253 0.635054827 12.070218086
209 1 0.0 14.606261253 6.985602856 20.590373993
210 1 0.0 14.606261253 6.985602856 17.750322342
211 1 0.0 14.606261253 6.985602856 14.910269737
212 1 0.0 14.606261253 6.985602856 12.070218086
213 1 0.0 14.606261253 13.336151123 20.590373993
214 1 0.0 14.606261253 13.336151123 17.750322342
215 1 0.0 14.606261253 13.336151123 14.910269737
216 1 0.0 14.606261253 13.336151123 12.070218086
217 1 0.0 5.715493202 1.905164361 20.590373993
218 1 0.0 5.715493202 1.905164361 17.750322342
219 1 0.0 5.715493202 1.905164361 14.910269737
220 1 0.0 5.715493202 1.905164361 12.070218086
221 1 0.0 5.715493202 8.255713463 20.590373993
222 1 0.0 5.715493202 8.255713463 17.750322342
223 1 0.0 5.715493202 8.255713463 14.910269737
224 1 0.0 5.715493202 8.255713463 12.070218086
225 1 0.0 5.715493202 14.606261253 20.590373993
226 1 0.0 5.715493202 14.606261253 17.750322342
227 1 0.0 5.715493202 14.606261253 14.910269737
228 1 0.0 5.715493202 14.606261253 12.070218086
229 1 0.0 12.066040993 1.905164361 20.590373993
230 1 0.0 12.066040993 1.905164361 17.750322342
231 1 0.0 12.066040993 1.905164361 14.910269737
232 1 0.0 12.066040993 1.905164361 12.070218086
233 1 0.0 12.066040993 8.255713463 20.590373993
234 1 0.0 12.066040993 8.255713463 17.750322342
235 1 0.0 12.066040993 8.255713463 14.910269737
236 1 0.0 12.066040993 8.255713463 12.070218086
237 1 0.0 12.066040993 14.606261253 20.590373993
238 1 0.0 12.066040993 14.606261253 17.750322342
239 1 0.0 12.066040993 14.606261253 14.910269737
240 1 0.0 12.066040993 14.606261253 12.070218086
241 1 0.0 18.416591644 1.905164361 20.590373993
242 1 0.0 18.416591644 1.905164361 17.750322342
243 1 0.0 18.416591644 1.905164361 14.910269737
244 1 0.0 18.416591644 1.905164361 12.070218086
245 1 0.0 18.416591644 8.255713463 20.590373993
246 1 0.0 18.416591644 8.255713463 17.750322342
247 1 0.0 18.416591644 8.255713463 14.910269737
248 1 0.0 18.416591644 8.255713463 12.070218086
249 1 0.0 18.416591644 14.606261253 20.590373993
250 1 0.0 18.416591644 14.606261253 17.750322342
251 1 0.0 18.416591644 14.606261253 14.910269737
252 1 0.0 18.416591644 14.606261253 12.070218086
253 1 0.0 0.635054946 4.445383549 20.590373993
254 1 0.0 0.635054946 4.445383549 17.750322342
255 1 0.0 0.635054946 4.445383549 14.910269737
256 1 0.0 0.635054946 4.445383549 12.070218086
257 1 0.0 0.635054946 10.795931816 20.590373993
258 1 0.0 0.635054946 10.795931816 17.750322342
259 1 0.0 0.635054946 10.795931816 14.910269737
260 1 0.0 0.635054946 10.795931816 12.070218086
261 1 0.0 0.635054946 17.146478653 20.590373993
262 1 0.0 0.635054946 17.146478653 17.750322342
263 1 0.0 0.635054946 17.146478653 14.910269737
264 1 0.0 0.635054946 17.146478653 12.070218086
265 1 0.0 6.985602856 4.445383549 20.590373993
266 1 0.0 6.985602856 4.445383549 17.750322342
267 1 0.0 6.985602856 4.445383549 14.910269737
268 1 0.0 6.985602856 4.445383549 12.070218086
269 1 0.0 6.985602856 10.795931816 20.590373993
270 1 0.0 6.985602856 10.795931816 17.750322342
271 1 0.0 6.985602856 10.795931816 14.910269737
272 1 0.0 6.985602856 10.795931816 12.070218086
273 1 0.0 6.985602856 17.146478653 20.590373993
274 1 0.0 6.985602856 17.146478653 17.750322342
275 1 0.0 6.985602856 17.146478653 14.910269737
276 1 0.0 6.985602856 17.146478653 12.070218086
277 1 0.0 13.336151123 4.445383549 20.590373993
278 1 0.0 13.336151123 4.445383549 17.750322342
279 1 0.0 13.336151123 4.445383549 14.910269737
280 1 0.0 13.336151123 4.445383549 12.070218086
281 1 0.0 13.336151123 10.795931816 20.590373993
282 1 0.0 13.336151123 10.795931816 17.750322342
283 1 0.0 13.336151123 10.795931816 14.910269737
284 1 0.0 13.336151123 10.795931816 12.070218086
285 1 0.0 13.336151123 17.146478653 20.590373993
286 1 0.0 13.336151123 17.146478653 17.750322342
287 1 0.0 13.336151123 17.146478653 14.910269737
288 1 0.0 13.336151123 17.146478653 12.070218086
289 1 0.0 3.175274134 3.175274134 20.590373993
290 1 0.0 3.175274134 3.175274134 17.750322342
291 1 0.0 3.175274134 3.175274134 14.910269737
292 1 0.0 3.175274134 3.175274134 12.070218086
293 1 0.0 3.175274134 9.525821686 20.590373993
294 1 0.0 3.175274134 9.525821686 17.750322342
295 1 0.0 3.175274134 9.525821686 14.910269737
296 1 0.0 3.175274134 9.525821686 12.070218086
297 1 0.0 3.175274134 15.87637043 20.590373993
298 1 0.0 3.175274134 15.87637043 17.750322342
299 1 0.0 3.175274134 15.87637043 14.910269737
300 1 0.0 3.175274134 15.87637043 12.070218086
301 1 0.0 9.525821686 3.175274134 20.590373993
302 1 0.0 9.525821686 3.175274134 17.750322342
303 1 0.0 9.525821686 3.175274134 14.910269737
304 1 0.0 9.525821686 3.175274134 12.070218086
305 1 0.0 9.525821686 9.525821686 20.590373993
306 1 0.0 9.525821686 9.525821686 17.750322342
307 1 0.0 9.525821686 9.525821686 14.910269737
308 1 0.0 9.525821686 9.525821686 12.070218086
309 1 0.0 9.525821686 15.87637043 20.590373993
310 1 0.0 9.525821686 15.87637043 17.750322342
311 1 0.0 9.525821686 15.87637043 14.910269737
312 1 0.0 9.525821686 15.87637043 12.070218086
313 1 0.0 15.87637043 3.175274134 20.590373993
314 1 0.0 15.87637043 3.175274134 17.750322342
315 1 0.0 15.87637043 3.175274134 14.910269737
316 1 0.0 15.87637043 3.175274134 12.070218086
317 1 0.0 15.87637043 9.525821686 20.590373993
318 1 0.0 15.87637043 9.525821686 17.750322342
319 1 0.0 15.87637043 9.525821686 14.910269737
320 1 0.0 15.87637043 9.525821686 12.070218086
321 1 0.0 15.87637043 15.87637043 20.590373993
322 1 0.0 15.87637043 15.87637043 17.750322342
323 1 0.0 15.87637043 15.87637043 14.910269737
324 1 0.0 15.87637043 15.87637043 12.070218086
325 1 0.0 4.445383549 5.715493202 20.590373993
326 1 0.0 4.445383549 5.715493202 17.750322342
327 1 0.0 4.445383549 5.715493202 14.910269737
328 1 0.0 4.445383549 5.715493202 12.070218086
329 1 0.0 4.445383549 12.066040993 20.590373993
330 1 0.0 4.445383549 12.066040993 17.750322342
331 1 0.0 4.445383549 12.066040993 14.910269737
332 1 0.0 4.445383549 12.066040993 12.070218086
333 1 0.0 4.445383549 18.416591644 20.590373993
334 1 0.0 4.445383549 18.416591644 17.750322342
335 1 0.0 4.445383549 18.416591644 14.910269737
336 1 0.0 4.445383549 18.416591644 12.070218086
337 1 0.0 10.795931816 5.715493202 20.590373993
338 1 0.0 10.795931816 5.715493202 17.750322342
339 1 0.0 10.795931816 5.715493202 14.910269737
340 1 0.0 10.795931816 5.715493202 12.070218086
341 1 0.0 10.795931816 12.066040993 20.590373993
342 1 0.0 10.795931816 12.066040993 17.750322342
343 1 0.0 10.795931816 12.066040993 14.910269737
344 1 0.0 10.795931816 12.066040993 12.070218086
345 1 0.0 10.795931816 18.416591644 20.590373993
346 1 0.0 10.795931816 18.416591644 17.750322342
347 1 0.0 10.795931816 18.416591644 14.910269737
348 1 0.0 10.795931816 18.416591644 12.070218086
349 1 0.0 17.146478653 5.715493202 20.590373993
350 1 0.0 17.146478653 5.715493202 17.750322342
351 1 0.0 17.146478653 5.715493202 14.910269737
352 1 0.0 17.146478653 5.715493202 12.070218086
353 1 0.0 17.146478653 12.066040993 20.590373993
354 1 0.0 17.146478653 12.066040993 17.750322342
355 1 0.0 17.146478653 12.066040993 14.910269737
356 1 0.0 17.146478653 12.066040993 12.070218086
357 1 0.0 17.146478653 18.416591644 20.590373993
358 1 0.0 17.146478653 18.416591644 17.750322342
359 1 0.0 17.146478653 18.416591644 14.910269737
360 1 0.0 17.146478653 18.416591644 12.070218086
361 2 0.0 2.442444324 2.442444324 0.710012853
362 2 0.0 2.442444324 2.442444324 3.550064325
363 2 0.0 2.442444324 2.442444324 6.390115738
364 2 0.0 2.442444324 2.442444324 9.230166435
365 2 0.0 2.442444324 5.282495975 0.710012853
366 2 0.0 2.442444324 5.282495975 3.550064325
367 2 0.0 2.442444324 5.282495975 6.390115738
368 2 0.0 2.442444324 5.282495975 9.230166435
369 2 0.0 2.442444324 8.12254715 0.710012853
370 2 0.0 2.442444324 8.12254715 3.550064325
371 2 0.0 2.442444324 8.12254715 6.390115738
372 2 0.0 2.442444324 8.12254715 9.230166435
373 2 0.0 2.442444324 10.962599754 0.710012853
374 2 0.0 2.442444324 10.962599754 3.550064325
375 2 0.0 2.442444324 10.962599754 6.390115738
376 2 0.0 2.442444324 10.962599754 9.230166435
377 2 0.0 2.442444324 13.802650452 0.710012853
378 2 0.0 2.442444324 13.802650452 3.550064325
379 2 0.0 2.442444324 13.802650452 6.390115738
380 2 0.0 2.442444324 13.802650452 9.230166435
381 2 0.0 2.442444324 16.642700195 0.710012853
382 2 0.0 2.442444324 16.642700195 3.550064325
383 2 0.0 2.442444324 16.642700195 6.390115738
384 2 0.0 2.442444324 16.642700195 9.230166435
385 2 0.0 5.282495975 2.442444324 0.710012853
386 2 0.0 5.282495975 2.442444324 3.550064325
387 2 0.0 5.282495975 2.442444324 6.390115738
388 2 0.0 5.282495975 2.442444324 9.230166435
389 2 0.0 5.282495975 5.282495975 0.710012853
390 2 0.0 5.282495975 5.282495975 3.550064325
391 2 0.0 5.282495975 5.282495975 6.390115738
392 2 0.0 5.282495975 5.282495975 9.230166435
393 2 0.0 5.282495975 8.12254715 0.710012853
394 2 0.0 5.282495975 8.12254715 3.550064325
395 2 0.0 5.282495975 8.12254715 6.390115738
396 2 0.0 5.282495975 8.12254715 9.230166435
397 2 0.0 5.282495975 10.962599754 0.710012853
398 2 0.0 5.282495975 10.962599754 3.550064325
399 2 0.0 5.282495975 10.962599754 6.390115738
400 2 0.0 5.282495975 10.962599754 9.230166435
401 2 0.0 5.282495975 13.802650452 0.710012853
402 2 0.0 5.282495975 13.802650452 3.550064325
403 2 0.0 5.282495975 13.802650452 6.390115738
404 2 0.0 5.282495975 13.802650452 9.230166435
405 2 0.0 5.282495975 16.642700195 0.710012853
406 2 0.0 5.282495975 16.642700195 3.550064325
407 2 0.0 5.282495975 16.642700195 6.390115738
408 2 0.0 5.282495975 16.642700195 9.230166435
409 2 0.0 8.12254715 2.442444324 0.710012853
410 2 0.0 8.12254715 2.442444324 3.550064325
411 2 0.0 8.12254715 2.442444324 6.390115738
412 2 0.0 8.12254715 2.442444324 9.230166435
413 2 0.0 8.12254715 5.282495975 0.710012853
414 2 0.0 8.12254715 5.282495975 3.550064325
415 2 0.0 8.12254715 5.282495975 6.390115738
416 2 0.0 8.12254715 5.282495975 9.230166435
417 2 0.0 8.12254715 8.12254715 0.710012853
418 2 0.0 8.12254715 8.12254715 3.550064325
419 2 0.0 8.12254715 8.12254715 6.390115738
420 2 0.0 8.12254715 8.12254715 9.230166435
421 2 0.0 8.12254715 10.962599754 0.710012853
422 2 0.0 8.12254715 10.962599754 3.550064325
423 2 0.0 8.12254715 10.962599754 6.390115738
424 2 0.0 8.12254715 10.962599754 9.230166435
425 2 0.0 8.12254715 13.802650452 0.710012853
426 2 0.0 8.12254715 13.802650452 3.550064325
427 2 0.0 8.12254715 13.802650452 6.390115738
428 2 0.0 8.12254715 13.802650452 9.230166435
429 2 0.0 8.12254715 16.642700195 0.710012853
430 2 0.0 8.12254715 16.642700195 3.550064325
431 2 0.0 8.12254715 16.642700195 6.390115738
432 2 0.0 8.12254715 16.642700195 9.230166435
433 2 0.0 10.962599754 2.442444324 0.710012853
434 2 0.0 10.962599754 2.442444324 3.550064325
435 2 0.0 10.962599754 2.442444324 6.390115738
436 2 0.0 10.962599754 2.442444324 9.230166435
437 2 0.0 10.962599754 5.282495975 0.710012853
438 2 0.0 10.962599754 5.282495975 3.550064325
439 2 0.0 10.962599754 5.282495975 6.390115738
440 2 0.0 10.962599754 5.282495975 9.230166435
441 2 0.0 10.962599754 8.12254715 0.710012853
442 2 0.0 10.962599754 8.12254715 3.550064325
443 2 0.0 10.962599754 8.12254715 6.390115738
444 2 0.0 10.962599754 8.12254715 9.230166435
445 2 0.0 10.962599754 10.962599754 0.710012853
446 2 0.0 10.962599754 10.962599754 3.550064325
447 2 0.0 10.962599754 10.962599754 6.390115738
448 2 0.0 10.962599754 10.962599754 9.230166435
449 2 0.0 10.962599754 13.802650452 0.710012853
450 2 0.0 10.962599754 13.802650452 3.550064325
451 2 0.0 10.962599754 13.802650452 6.390115738
452 2 0.0 10.962599754 13.802650452 9.230166435
453 2 0.0 10.962599754 16.642700195 0.710012853
454 2 0.0 10.962599754 16.642700195 3.550064325
455 2 0.0 10.962599754 16.642700195 6.390115738
456 2 0.0 10.962599754 16.642700195 9.230166435
457 2 0.0 13.802650452 2.442444324 0.710012853
458 2 0.0 13.802650452 2.442444324 3.550064325
459 2 0.0 13.802650452 2.442444324 6.390115738
460 2 0.0 13.802650452 2.442444324 9.230166435
461 2 0.0 13.802650452 5.282495975 0.710012853
462 2 0.0 13.802650452 5.282495975 3.550064325
463 2 0.0 13.802650452 5.282495975 6.390115738
464 2 0.0 13.802650452 5.282495975 9.230166435
465 2 0.0 13.802650452 8.12254715 0.710012853
466 2 0.0 13.802650452 8.12254715 3.550064325
467 2 0.0 13.802650452 8.12254715 6.390115738
468 2 0.0 13.802650452 8.12254715 9.230166435
469 2 0.0 13.802650452 10.962599754 0.710012853
470 2 0.0 13.802650452 10.962599754 3.550064325
471 2 0.0 13.802650452 10.962599754 6.390115738
472 2 0.0 13.802650452 10.962599754 9.230166435
473 2 0.0 13.802650452 13.802650452 0.710012853
474 2 0.0 13.802650452 13.802650452 3.550064325
475 2 0.0 13.802650452 13.802650452 6.390115738
476 2 0.0 13.802650452 13.802650452 9.230166435
477 2 0.0 13.802650452 16.642700195 0.710012853
478 2 0.0 13.802650452 16.642700195 3.550064325
479 2 0.0 13.802650452 16.642700195 6.390115738
480 2 0.0 13.802650452 16.642700195 9.230166435
481 2 0.0 16.642700195 2.442444324 0.710012853
482 2 0.0 16.642700195 2.442444324 3.550064325
483 2 0.0 16.642700195 2.442444324 6.390115738
484 2 0.0 16.642700195 2.442444324 9.230166435
485 2 0.0 16.642700195 5.282495975 0.710012853
486 2 0.0 16.642700195 5.282495975 3.550064325
487 2 0.0 16.642700195 5.282495975 6.390115738
488 2 0.0 16.642700195 5.282495975 9.230166435
489 2 0.0 16.642700195 8.12254715 0.710012853
490 2 0.0 16.642700195 8.12254715 3.550064325
491 2 0.0 16.642700195 8.12254715 6.390115738
492 2 0.0 16.642700195 8.12254715 9.230166435
493 2 0.0 16.642700195 10.962599754 0.710012853
494 2 0.0 16.642700195 10.962599754 3.550064325
495 2 0.0 16.642700195 10.962599754 6.390115738
496 2 0.0 16.642700195 10.962599754 9.230166435
497 2 0.0 16.642700195 13.802650452 0.710012853
498 2 0.0 16.642700195 13.802650452 3.550064325
499 2 0.0 16.642700195 13.802650452 6.390115738
500 2 0.0 16.642700195 13.802650452 9.230166435
501 2 0.0 16.642700195 16.642700195 0.710012853
502 2 0.0 16.642700195 16.642700195 3.550064325
503 2 0.0 16.642700195 16.642700195 6.390115738
504 2 0.0 16.642700195 16.642700195 9.230166435
505 2 0.0 1.022418737 1.022418737 2.1300385
506 2 0.0 1.022418737 1.022418737 4.970089912
507 2 0.0 1.022418737 1.022418737 7.810141563
508 2 0.0 1.022418737 1.022418737 10.650194168
509 2 0.0 1.022418737 3.862470388 2.1300385
510 2 0.0 1.022418737 3.862470388 4.970089912
511 2 0.0 1.022418737 3.862470388 7.810141563
512 2 0.0 1.022418737 3.862470388 10.650194168
513 2 0.0 1.022418737 6.702521324 2.1300385
514 2 0.0 1.022418737 6.702521324 4.970089912
515 2 0.0 1.022418737 6.702521324 7.810141563
516 2 0.0 1.022418737 6.702521324 10.650194168
517 2 0.0 1.022418737 9.542572021 2.1300385
518 2 0.0 1.022418737 9.542572021 4.970089912
519 2 0.0 1.022418737 9.542572021 7.810141563
520 2 0.0 1.022418737 9.542572021 10.650194168
521 2 0.0 1.022418737 12.38262558 2.1300385
522 2 0.0 1.022418737 12.38262558 4.970089912
523 2 0.0 1.022418737 12.38262558 7.810141563
524 2 0.0 1.022418737 12.38262558 10.650194168
525 2 0.0 1.022418737 15.222677231 2.1300385
526 2 0.0 1.022418737 15.222677231 4.970089912
527 2 0.0 1.022418737 15.222677231 7.810141563
528 2 0.0 1.022418737 15.222677231 10.650194168
529 2 0.0 1.022418737 18.062728882 2.1300385
530 2 0.0 1.022418737 18.062728882 4.970089912
531 2 0.0 1.022418737 18.062728882 7.810141563
532 2 0.0 1.022418737 18.062728882 10.650194168
533 2 0.0 3.862470388 1.022418737 2.1300385
534 2 0.0 3.862470388 1.022418737 4.970089912
535 2 0.0 3.862470388 1.022418737 7.810141563
536 2 0.0 3.862470388 1.022418737 10.650194168
537 2 0.0 3.862470388 3.862470388 2.1300385
538 2 0.0 3.862470388 3.862470388 4.970089912
539 2 0.0 3.862470388 3.862470388 7.810141563
540 2 0.0 3.862470388 3.862470388 10.650194168
541 2 0.0 3.862470388 6.702521324 2.1300385
542 2 0.0 3.862470388 6.702521324 4.970089912
543 2 0.0 3.862470388 6.702521324 7.810141563
544 2 0.0 3.862470388 6.702521324 10.650194168
545 2 0.0 3.862470388 9.542572021 2.1300385
546 2 0.0 3.862470388 9.542572021 4.970089912
547 2 0.0 3.862470388 9.542572021 7.810141563
548 2 0.0 3.862470388 9.542572021 10.650194168
549 2 0.0 3.862470388 12.38262558 2.1300385
550 2 0.0 3.862470388 12.38262558 4.970089912
551 2 0.0 3.862470388 12.38262558 7.810141563
552 2 0.0 3.862470388 12.38262558 10.650194168
553 2 0.0 3.862470388 15.222677231 2.1300385
554 2 0.0 3.862470388 15.222677231 4.970089912
555 2 0.0 3.862470388 15.222677231 7.810141563
556 2 0.0 3.862470388 15.222677231 10.650194168
557 2 0.0 3.862470388 18.062728882 2.1300385
558 2 0.0 3.862470388 18.062728882 4.970089912
559 2 0.0 3.862470388 18.062728882 7.810141563
560 2 0.0 3.862470388 18.062728882 10.650194168
561 2 0.0 6.702521324 1.022418737 2.1300385
562 2 0.0 6.702521324 1.022418737 4.970089912
563 2 0.0 6.702521324 1.022418737 7.810141563
564 2 0.0 6.702521324 1.022418737 10.650194168
565 2 0.0 6.702521324 3.862470388 2.1300385
566 2 0.0 6.702521324 3.862470388 4.970089912
567 2 0.0 6.702521324 3.862470388 7.810141563
568 2 0.0 6.702521324 3.862470388 10.650194168
569 2 0.0 6.702521324 6.702521324 2.1300385
570 2 0.0 6.702521324 6.702521324 4.970089912
571 2 0.0 6.702521324 6.702521324 7.810141563
572 2 0.0 6.702521324 6.702521324 10.650194168
573 2 0.0 6.702521324 9.542572021 2.1300385
574 2 0.0 6.702521324 9.542572021 4.970089912
575 2 0.0 6.702521324 9.542572021 7.810141563
576 2 0.0 6.702521324 9.542572021 10.650194168
577 2 0.0 6.702521324 12.38262558 2.1300385
578 2 0.0 6.702521324 12.38262558 4.970089912
579 2 0.0 6.702521324 12.38262558 7.810141563
580 2 0.0 6.702521324 12.38262558 10.650194168
581 2 0.0 6.702521324 15.222677231 2.1300385
582 2 0.0 6.702521324 15.222677231 4.970089912
583 2 0.0 6.702521324 15.222677231 7.810141563
584 2 0.0 6.702521324 15.222677231 10.650194168
585 2 0.0 6.702521324 18.062728882 2.1300385
586 2 0.0 6.702521324 18.062728882 4.970089912
587 2 0.0 6.702521324 18.062728882 7.810141563
588 2 0.0 6.702521324 18.062728882 10.650194168
589 2 0.0 9.542572021 1.022418737 2.1300385
590 2 0.0 9.542572021 1.022418737 4.970089912
591 2 0.0 9.542572021 1.022418737 7.810141563
592 2 0.0 9.542572021 1.022418737 10.650194168
593 2 0.0 9.542572021 3.862470388 2.1300385
594 2 0.0 9.542572021 3.862470388 4.970089912
595 2 0.0 9.542572021 3.862470388 7.810141563
596 2 0.0 9.542572021 3.862470388 10.650194168
597 2 0.0 9.542572021 6.702521324 2.1300385
598 2 0.0 9.542572021 6.702521324 4.970089912
599 2 0.0 9.542572021 6.702521324 7.810141563
600 2 0.0 9.542572021 6.702521324 10.650194168
601 2 0.0 9.542572021 9.542572021 2.1300385
602 2 0.0 9.542572021 9.542572021 4.970089912
603 2 0.0 9.542572021 9.542572021 7.810141563
604 2 0.0 9.542572021 9.542572021 10.650194168
605 2 0.0 9.542572021 12.38262558 2.1300385
606 2 0.0 9.542572021 12.38262558 4.970089912
607 2 0.0 9.542572021 12.38262558 7.810141563
608 2 0.0 9.542572021 12.38262558 10.650194168
609 2 0.0 9.542572021 15.222677231 2.1300385
610 2 0.0 9.542572021 15.222677231 4.970089912
611 2 0.0 9.542572021 15.222677231 7.810141563
612 2 0.0 9.542572021 15.222677231 10.650194168
613 2 0.0 9.542572021 18.062728882 2.1300385
614 2 0.0 9.542572021 18.062728882 4.970089912
615 2 0.0 9.542572021 18.062728882 7.810141563
616 2 0.0 9.542572021 18.062728882 10.650194168
617 2 0.0 12.38262558 1.022418737 2.1300385
618 2 0.0 12.38262558 1.022418737 4.970089912
619 2 0.0 12.38262558 1.022418737 7.810141563
620 2 0.0 12.38262558 1.022418737 10.650194168
621 2 0.0 12.38262558 3.862470388 2.1300385
622 2 0.0 12.38262558 3.862470388 4.970089912
623 2 0.0 12.38262558 3.862470388 7.810141563
624 2 0.0 12.38262558 3.862470388 10.650194168