# LAMMPS data file written by Ovito Basic 3.0.0-dev791
408 atoms
2 atom types
0.0 14.4814786911 xlo xhi
0.0 14.4814786911 ylo yhi
0.0 22.720413208 zlo zhi

Atoms  # charge

1 1 0.0 0.0 0.0 22.010398865
2 1 0.0 0.0 0.0 19.170345306
3 1 0.0 0.0 0.0 16.330295563
4 1 0.0 0.0 0.0 13.490243912
5 1 0.0 11.696578026 0.556979895 22.010398865
6 1 0.0 11.696578026 0.556979895 19.170345306
7 1 0.0 11.696578026 0.556979895 16.330295563
8 1 0.0 11.696578026 0.556979895 13.490243912
9 1 0.0 12.253558159 3.341879368 22.010398865
10 1 0.0 12.253558159 3.341879368 19.170345306
11 1 0.0 12.253558159 3.341879368 16.330295563
12 1 0.0 12.253558159 3.341879368 13.490243912
13 1 0.0 12.810537338 6.126779079 22.010398865
14 1 0.0 12.810537338 6.126779079 19.170345306
15 1 0.0 12.810537338 6.126779079 16.330295563
16 1 0.0 12.810537338 6.126779079 13.490243912
17 1 0.0 13.367517471 8.911678314 22.010398865
18 1 0.0 13.367517471 8.911678314 19.170345306
19 1 0.0 13.367517471 8.911678314 16.330295563
20 1 0.0 13.367517471 8.911678314 13.490243912
21 1 0.0 13.924497604 11.696578026 22.010398865
22 1 0.0 13.924497604 11.696578026 19.170345306
23 1 0.0 13.924497604 11.696578026 16.330295563
24 1 0.0 13.924497604 11.696578026 13.490243912
25 1 0.0 0.556979895 2.784899473 22.010398865
26 1 0.0 0.556979895 2.784899473 19.170345306
27 1 0.0 0.556979895 2.784899473 16.330295563
28 1 0.0 0.556979895 2.784899473 13.490243912
29 1 0.0 1.113959789 5.569798946 22.010398865
30 1 0.0 1.113959789 5.569798946 19.170345306
31 1 0.0 1.113959789 5.569798946 16.330295563
32 1 0.0 1.113959789 5.569798946 13.490243912
33 1 0.0 1.670939684 8.354698181 22.010398865
34 1 0.0 1.670939684 8.354698181 19.170345306
35 1 0.0 1.670939684 8.354698181 16.330295563
36 1 0.0 1.670939684 8.354698181 13.490243912
37 1 0.0 2.227919579 11.139597893 22.010398865
38 1 0.0 2.227919579 11.139597893 19.170345306
39 1 0.0 2.227919579 11.139597893 16.330295563
40 1 0.0 2.227919579 11.139597893 13.490243912
41 1 0.0 2.784899473 13.924497604 22.010398865
42 1 0.0 2.784899473 13.924497604 19.170345306
43 1 0.0 2.784899473 13.924497604 16.330295563
44 1 0.0 2.784899473 13.924497604 13.490243912
45 1 0.0 3.341879368 2.227919579 22.010398865
46 1 0.0 3.341879368 2.227919579 19.170345306
47 1 0.0 3.341879368 2.227919579 16.330295563
48 1 0.0 3.341879368 2.227919579 13.490243912
49 1 0.0 3.898859501 5.01281929 22.010398865
50 1 0.0 3.898859501 5.01281929 19.170345306
51 1 0.0 3.898859501 5.01281929 16.330295563
52 1 0.0 3.898859501 5.01281929 13.490243912
53 1 0.0 4.455839157 7.797719002 22.010398865
54 1 0.0 4.455839157 7.797719002 19.170345306
55 1 0.0 4.455839157 7.797719002 16.330295563
56 1 0.0 4.455839157 7.797719002 13.490243912
57 1 0.0 5.01281929 10.58261776 22.010398865
58 1 0.0 5.01281929 10.58261776 19.170345306
59 1 0.0 5.01281929 10.58261776 16.330295563
60 1 0.0 5.01281929 10.58261776 13.490243912
61 1 0.0 5.569798946 13.367517471 22.010398865
62 1 0.0 5.569798946 13.367517471 19.170345306
63 1 0.0 5.569798946 13.367517471 16.330295563
64 1 0.0 5.569798946 13.367517471 13.490243912
65 1 0.0 6.126779079 1.670939684 22.010398865
66 1 0.0 6.126779079 1.670939684 19.170345306
67 1 0.0 6.126779079 1.670939684 16.330295563
68 1 0.0 6.126779079 1.670939684 13.490243912
69 1 0.0 6.683758736 4.455839157 22.010398865
70 1 0.0 6.683758736 4.455839157 19.170345306
71 1 0.0 6.683758736 4.455839157 16.330295563
72 1 0.0 6.683758736 4.455839157 13.490243912
73 1 0.0 7.240738869 7.240738869 22.010398865
74 1 0.0 7.240738869 7.240738869 19.170345306
75 1 0.0 7.240738869 7.240738869 16.330295563
76 1 0.0 7.240738869 7.240738869 13.490243912
77 1 0.0 7.797719002 10.02563858 22.010398865
78 1 0.0 7.797719002 10.02563858 19.170345306
79 1 0.0 7.797719002 10.02563858 16.330295563
80 1 0.0 7.797719002 10.02563858 13.490243912
81 1 0.0 8.354698181 12.810537338 22.010398865
82 1 0.0 8.354698181 12.810537338 19.170345306
83 1 0.0 8.354698181 12.810537338 16.330295563
84 1 0.0 8.354698181 12.810537338 13.490243912
85 1 0.0 8.911678314 1.113959789 22.010398865
86 1 0.0 8.911678314 1.113959789 19.170345306
87 1 0.0 8.911678314 1.113959789 16.330295563
88 1 0.0 8.911678314 1.113959789 13.490243912
89 1 0.0 9.468658447 3.898859501 22.010398865
90 1 0.0 9.468658447 3.898859501 19.170345306
91 1 0.0 9.468658447 3.898859501 16.330295563
92 1 0.0 9.468658447 3.898859501 13.490243912
93 1 0.0 10.02563858 6.683758736 22.010398865
94 1 0.0 10.02563858 6.683758736 19.170345306
95 1 0.0 10.02563858 6.683758736 16.330295563
96 1 0.0 10.02563858 6.683758736 13.490243912
97 1 0.0 10.58261776 9.468658447 22.010398865
98 1 0.0 10.58261776 9.468658447 19.170345306
99 1 0.0 10.58261776 9.468658447 16.330295563
100 1 0.0 10.58261776 9.468658447 13.490243912
101 1 0.0 11.139597893 12.253558159 22.010398865
102 1 0.0 11.139597893 12.253558159 19.170345306
103 1 0.0 11.139597893 12.253558159 16.330295563
104 1 0.0 11.139597893 12.253558159 13.490243912
105 1 0.0 1.670939684 1.113959789 20.590373993
106 1 0.0 1.670939684 1.113959789 17.750322342
107 1 0.0 1.670939684 1.113959789 14.910269737
108 1 0.0 1.670939684 1.113959789 12.070218086
109 1 0.0 13.367517471 1.670939803 20.590373993
110 1 0.0 13.367517471 1.670939803 17.750322342
111 1 0.0 13.367517471 1.670939803 14.910269737
112 1 0.0 13.367517471 1.670939803 12.070218086
113 1 0.0 13.924498558 4.455839157 20.590373993
114 1 0.0 13.924498558 4.455839157 17.750322342
115 1 0.0 13.924498558 4.455839157 14.910269737
116 1 0.0 13.924498558 4.455839157 12.070218086
117 1 0.0 0.0 7.240738869 20.590373993
118 1 0.0 0.0 7.240738869 17.750322342
119 1 0.0 0.0 7.240738869 14.910269737
120 1 0.0 0.0 7.240738869 12.070218086
121 1 0.0 0.556980312 10.02563858 20.590373993
122 1 0.0 0.556980312 10.02563858 17.750322342
123 1 0.0 0.556980312 10.02563858 14.910269737
124 1 0.0 0.556980312 10.02563858 12.070218086
125 1 0.0 1.113958836 12.810537338 20.590373993
126 1 0.0 1.113958836 12.810537338 17.750322342
127 1 0.0 1.113958836 12.810537338 14.910269737
128 1 0.0 1.113958836 12.810537338 12.070218086
129 1 0.0 2.227919579 3.898859501 20.590373993
130 1 0.0 2.227919579 3.898859501 17.750322342
131 1 0.0 2.227919579 3.898859501 14.910269737
132 1 0.0 2.227919579 3.898859501 12.070218086
133 1 0.0 2.784899473 6.683758736 20.590373993
134 1 0.0 2.784899473 6.683758736 17.750322342
135 1 0.0 2.784899473 6.683758736 14.910269737
136 1 0.0 2.784899473 6.683758736 12.070218086
137 1 0.0 3.341879368 9.468658447 20.590373993
138 1 0.0 3.341879368 9.468658447 17.750322342
139 1 0.0 3.341879368 9.468658447 14.910269737
140 1 0.0 3.341879368 9.468658447 12.070218086
141 1 0.0 3.898859501 12.253558159 20.590373993
142 1 0.0 3.898859501 12.253558159 17.750322342
143 1 0.0 3.898859501 12.253558159 14.910269737
144 1 0.0 3.898859501 12.253558159 12.070218086
145 1 0.0 4.455839157 0.556980312 20.590373993
146 1 0.0 4.455839157 0.556980312 17.750322342
147 1 0.0 4.455839157 0.556980312 14.910269737
148 1 0.0 4.455839157 0.556980312 12.070218086
149 1 0.0 5.01281929 3.341879606 20.590373993
150 1 0.0 5.01281929 3.341879606 17.750322342
151 1 0.0 5.01281929 3.341879606 14.910269737
152 1 0.0 5.01281929 3.341879606 12.070218086
153 1 0.0 5.569798946 6.126779079 20.590373993
154 1 0.0 5.569798946 6.126779079 17.750322342
155 1 0.0 5.569798946 6.126779079 14.910269737
156 1 0.0 5.569798946 6.126779079 12.070218086
157 1 0.0 6.126779079 8.911678314 20.590373993
158 1 0.0 6.126779079 8.911678314 17.750322342
159 1 0.0 6.126779079 8.911678314 14.910269737
160 1 0.0 6.126779079 8.911678314 12.070218086
161 1 0.0 6.683758736 11.696578026 20.590373993
162 1 0.0 6.683758736 11.696578026 17.750322342
163 1 0.0 6.683758736 11.696578026 14.910269737
164 1 0.0 6.683758736 11.696578026 12.070218086
165 1 0.0 7.240738869 0.0 20.590373993
166 1 0.0 7.240738869 0.0 17.750322342
167 1 0.0 7.240738869 0.0 14.910269737
168 1 0.0 7.240738869 0.0 12.070218086
169 1 0.0 7.797719002 2.784899473 20.590373993
170 1 0.0 7.797719002 2.784899473 17.750322342
171 1 0.0 7.797719002 2.784899473 14.910269737
172 1 0.0 7.797719002 2.784899473 12.070218086
173 1 0.0 8.354698181 5.569798946 20.590373993
174 1 0.0 8.354698181 5.569798946 17.750322342
175 1 0.0 8.354698181 5.569798946 14.910269737
176 1 0.0 8.354698181 5.569798946 12.070218086
177 1 0.0 8.911678314 8.354698181 20.590373993
178 1 0.0 8.911678314 8.354698181 17.750322342
179 1 0.0 8.911678314 8.354698181 14.910269737
180 1 0.0 8.911678314 8.354698181 12.070218086
181 1 0.0 9.468658447 11.139597893 20.590373993
182 1 0.0 9.468658447 11.139597893 17.750322342
183 1 0.0 9.468658447 11.139597893 14.910269737
184 1 0.0 9.468658447 11.139597893 12.070218086
185 1 0.0 10.02563858 13.924497604 20.590373993
186 1 0.0 10.02563858 13.924497604 17.750322342
187 1 0.0 10.02563858 13.924497604 14.910269737
188 1 0.0 10.02563858 13.924497604 12.070218086
189 1 0.0 10.582618713 2.227919579 20.590373993
190 1 0.0 10.582618713 2.227919579 17.750322342
191 1 0.0 10.582618713 2.227919579 14.910269737
192 1 0.0 10.582618713 2.227919579 12.070218086
193 1 0.0 11.139597893 5.01281929 20.590373993
194 1 0.0 11.139597893 5.01281929 17.750322342
195 1 0.0 11.139597893 5.01281929 14.910269737
196 1 0.0 11.139597893 5.01281929 12.070218086
197 1 0.0 11.696578979 7.797719002 20.590373993
198 1 0.0 11.696578979 7.797719002 17.750322342
199 1 0.0 11.696578979 7.797719002 14.910269737
200 1 0.0 11.696578979 7.797719002 12.070218086
201 1 0.0 12.253558159 10.58261776 20.590373993
202 1 0.0 12.253558159 10.58261776 17.750322342
203 1 0.0 12.253558159 10.58261776 14.910269737
204 1 0.0 12.253558159 10.58261776 12.070218086
205 1 0.0 12.810538292 13.367517471 20.590373993
206 1 0.0 12.810538292 13.367517471 17.750322342
207 1 0.0 12.810538292 13.367517471 14.910269737
208 1 0.0 12.810538292 13.367517471 12.070218086
209 2 0.0 0.001391912 0.001391912 0.710012853
210 2 0.0 0.001391912 0.001391912 3.550064325
211 2 0.0 0.001391912 0.001391912 6.390115738
212 2 0.0 0.001391912 0.001391912 9.230166435
213 2 0.0 0.001391912 2.982053995 0.710012853
214 2 0.0 0.001391912 2.982053995 3.550064325
215 2 0.0 0.001391912 2.982053995 6.390115738
216 2 0.0 0.001391912 2.982053995 9.230166435
217 2 0.0 0.001391912 5.822105408 0.710012853
218 2 0.0 0.001391912 5.822105408 3.550064325
219 2 0.0 0.001391912 5.822105408 6.390115738
220 2 0.0 0.001391912 5.822105408 9.230166435
221 2 0.0 0.001391912 8.662156105 0.710012853
222 2 0.0 0.001391912 8.662156105 3.550064325
223 2 0.0 0.001391912 8.662156105 6.390115738
224 2 0.0 0.001391912 8.662156105 9.230166435
225 2 0.0 0.001391912 11.502207756 0.710012853
226 2 0.0 0.001391912 11.502207756 3.550064325
227 2 0.0 0.001391912 11.502207756 6.390115738
228 2 0.0 0.001391912 11.502207756 9.230166435
229 2 0.0 2.982053995 0.001391912 0.710012853
230 2 0.0 2.982053995 0.001391912 3.550064325
231 2 0.0 2.982053995 0.001391912 6.390115738
232 2 0.0 2.982053995 0.001391912 9.230166435
233 2 0.0 2.982053995 2.982053995 0.710012853
234 2 0.0 2.982053995 2.982053995 3.550064325
235 2 0.0 2.982053995 2.982053995 6.390115738
236 2 0.0 2.982053995 2.982053995 9.230166435
237 2 0.0 2.982053995 5.822105408 0.710012853
238 2 0.0 2.982053995 5.822105408 3.550064325
239 2 0.0 2.982053995 5.822105408 6.390115738
240 2 0.0 2.982053995 5.822105408 9.230166435
241 2 0.0 2.982053995 8.662156105 0.710012853
242 2 0.0 2.982053995 8.662156105 3.550064325
243 2 0.0 2.982053995 8.662156105 6.390115738
244 2 0.0 2.982053995 8.662156105 9.230166435
245 2 0.0 2.982053995 11.502207756 0.710012853
246 2 0.0 2.982053995 11.502207756 3.550064325
247 2 0.0 2.982053995 11.502207756 6.390115738
248 2 0.0 2.982053995 11.502207756 9.230166435
249 2 0.0 5.822105408 0.001391912 0.710012853
250 2 0.0 5.822105408 0.001391912 3.550064325
251 2 0.0 5.822105408 0.001391912 6.390115738
252 2 0.0 5.822105408 0.001391912 9.230166435
253 2 0.0 5.822105408 2.982053995 0.710012853
254 2 0.0 5.822105408 2.982053995 3.550064325
255 2 0.0 5.822105408 2.982053995 6.390115738
256 2 0.0 5.822105408 2.982053995 9.230166435
257 2 0.0 5.822105408 5.822105408 0.710012853
258 2 0.0 5.822105408 5.822105408 3.550064325
259 2 0.0 5.822105408 5.822105408 6.390115738
260 2 0.0 5.822105408 5.822105408 9.230166435
261 2 0.0 5.822105408 8.662156105 0.710012853
262 2 0.0 5.822105408 8.662156105 3.550064325
263 2 0.0 5.822105408 8.662156105 6.390115738
264 2 0.0 5.822105408 8.662156105 9.230166435
265 2 0.0 5.822105408 11.502207756 0.710012853
266 2 0.0 5.822105408 11.502207756 3.550064325
267 2 0.0 5.822105408 11.502207756 6.390115738
268 2 0.0 5.822105408 11.502207756 9.230166435
269 2 0.0 8.662156105 0.001391912 0.710012853
270 2 0.0 8.662156105 0.001391912 3.550064325
271 2 0.0 8.662156105 0.001391912 6.390115738
272 2 0.0 8.662156105 0.001391912 9.230166435
273 2 0.0 8.662156105 2.982053995 0.710012853
274 2 0.0 8.662156105 2.982053995 3.550064325
275 2 0.0 8.662156105 2.982053995 6.390115738
276 2 0.0 8.662156105 2.982053995 9.230166435
277 2 0.0 8.662156105 5.822105408 0.710012853
278 2 0.0 8.662156105 5.822105408 3.550064325
279 2 0.0 8.662156105 5.822105408 6.390115738
280 2 0.0 8.662156105 5.822105408 9.230166435
281 2 0.0 8.662156105 8.662156105 0.710012853
282 2 0.0 8.662156105 8.662156105 3.550064325
283 2 0.0 8.662156105 8.662156105 6.390115738
284 2 0.0 8.662156105 8.662156105 9.230166435
285 2 0.0 8.662156105 11.502207756 0.710012853
286 2 0.0 8.662156105 11.502207756 3.550064325
287 2 0.0 8.662156105 11.502207756 6.390115738
288 2 0.0 8.662156105 11.502207756 9.230166435
289 2 0.0 11.502207756 0.001391912 0.710012853
290 2 0.0 11.502207756 0.001391912 3.550064325
291 2 0.0 11.502207756 0.001391912 6.390115738
292 2 0.0 11.502207756 0.001391912 9.230166435
293 2 0.0 11.502207756 2.982053995 0.710012853
294 2 0.0 11.502207756 2.982053995 3.550064325
295 2 0.0 11.502207756 2.982053995 6.390115738
296 2 0.0 11.502207756 2.982053995 9.230166435
297 2 0.0 11.502207756 5.822105408 0.710012853
298 2 0.0 11.502207756 5.822105408 3.550064325
299 2 0.0 11.502207756 5.822105408 6.390115738
300 2 0.0 11.502207756 5.822105408 9.230166435
301 2 0.0 11.502207756 8.662156105 0.710012853
302 2 0.0 11.502207756 8.662156105 3.550064325
303 2 0.0 11.502207756 8.662156105 6.390115738
304 2 0.0 11.502207756 8.662156105 9.230166435
305 2 0.0 11.502207756 11.502207756 0.710012853
306 2 0.0 11.502207756 11.502207756 3.550064325
307 2 0.0 11.502207756 11.502207756 6.390115738
308 2 0.0 11.502207756 11.502207756 9.230166435
309 2 0.0 1.562028289 1.562028289 2.1300385
310 2 0.0 1.562028289 1.562028289 4.970089912
311 2 0.0 1.562028289 1.562028289 7.810141563
312 2 0.0 1.562028289 1.562028289 10.650194168
313 2 0.0 1.562028289 4.402079582 2.1300385
314 2 0.0 1.562028289 4.402079582 4.970089912
315 2 0.0 1.562028289 4.402079582 7.810141563
316 2 0.0 1.562028289 4.402079582 10.650194168
317 2 0.0 1.562028289 7.242130756 2.1300385
318 2 0.0 1.562028289 7.242130756 4.970089912
319 2 0.0 1.562028289 7.242130756 7.810141563
320 2 0.0 1.562028289 7.242130756 10.650194168
321 2 0.0 1.562028289 10.082182884 2.1300385
322 2 0.0 1.562028289 10.082182884 4.970089912
323 2 0.0 1.562028289 10.082182884 7.810141563
324 2 0.0 1.562028289 10.082182884 10.650194168
325 2 0.0 1.562028289 12.922234535 2.1300385
326 2 0.0 1.562028289 12.922234535 4.970089912
327 2 0.0 1.562028289 12.922234535 7.810141563
328 2 0.0 1.562028289 12.922234535 10.650194168
329 2 0.0 4.402079582 1.562028289 2.1300385
330 2 0.0 4.402079582 1.562028289 4.970089912
331 2 0.0 4.402079582 1.562028289 7.810141563
332 2 0.0 4.402079582 1.562028289 10.650194168
333 2 0.0 4.402079582 4.402079582 2.1300385
334 2 0.0 4.402079582 4.402079582 4.970089912
335 2 0.0 4.402079582 4.402079582 7.810141563
336 2 0.0 4.402079582 4.402079582 10.650194168
337 2 0.0 4.402079582 7.242130756 2.1300385
338 2 0.0 4.402079582 7.242130756 4.970089912
339 2 0.0 4.402079582 7.242130756 7.810141563
340 2 0.0 4.402079582 7.242130756 10.650194168
341 2 0.0 4.402079582 10.082182884 2.1300385
342 2 0.0 4.402079582 10.082182884 4.970089912
343 2 0.0 4.402079582 10.082182884 7.810141563
344 2 0.0 4.402079582 10.082182884 10.650194168
345 2 0.0 4.402079582 12.922234535 2.1300385
346 2 0.0 4.402079582 12.922234535 4.970089912
347 2 0.0 4.402079582 12.922234535 7.810141563
348 2 0.0 4.402079582 12.922234535 10.650194168
349 2 0.0 7.242130756 1.562028289 2.1300385
350 2 0.0 7.242130756 1.562028289 4.970089912
351 2 0.0 7.242130756 1.562028289 7.810141563
352 2 0.0 7.242130756 1.562028289 10.650194168
353 2 0.0 7.242130756 4.402079582 2.1300385
354 2 0.0 7.242130756 4.402079582 4.970089912
355 2 0.0 7.242130756 4.402079582 7.810141563
356 2 0.0 7.242130756 4.402079582 10.650194168
357 2 0.0 7.242130756 7.242130756 2.1300385
358 2 0.0 7.242130756 7.242130756 4.970089912
359 2 0.0 7.242130756 7.242130756 7.810141563
360 2 0.0 7.242130756 7.242130756 10.650194168
361 2 0.0 7.242130756 10.082182884 2.1300385
362 2 0.0 7.242130756 10.082182884 4.970089912
363 2 0.0 7.242130756 10.082182884 7.810141563
364 2 0.0 7.242130756 10.082182884 10.650194168
365 2 0.0 7.242130756 12.922234535 2.1300385
366 2 0.0 7.242130756 12.922234535 4.970089912
367 2 0.0 7.242130756 12.922234535 7.810141563
368 2 0.0 7.242130756 12.922234535 10.650194168
369 2 0.0 10.082182884 1.562028289 2.1300385
370 2 0.0 10.082182884 1.562028289 4.970089912
371 2 0.0 10.082182884 1.562028289 7.810141563
372 2 0.0 10.082182884 1.562028289 10.650194168
373 2 0.0 10.082182884 4.402079582 2.1300385
374 2 0.0 10.082182884 4.402079582 4.970089912
375 2 0.0 10.082182884 4.402079582 7.810141563
376 2 0.0 10.082182884 4.402079582 10.650194168
377 2 0.0 10.082182884 7.242130756 2.1300385
378 2 0.0 10.082182884 7.242130756 4.970089912
379 2 0.0 10.082182884 7.242130756 7.810141563
380 2 0.0 10.082182884 7.242130756 10.650194168
381 2 0.0 10.082182884 10.082182884 2.1300385
382 2 0.0 10.082182884 10.082182884 4.970089912
383 2 0.0 10.082182884 10.082182884 7.810141563
384 2 0.0 10.082182884 10.082182884 10.650194168
385 2 0.0 10.082182884 12.922234535 2.1300385
386 2 0.0 10.082182884 12.922234535 4.970089912
387 2 0.0 10.082182884 12.922234535 7.810141563
388 2 0.0 10.082182884 12.922234535 10.650194168
389 2 0.0 12.922234535 1.562028289 2.1300385
390 2 0.0 12.922234535 1.562028289 4.970089912
391 2 0.0 12.922234535 1.562028289 7.810141563
392 2 0.0 12.922234535 1.562028289 10.650194168
393 2 0.0 12.922234535 4.402079582 2.1300385
394 2 0.0 12.922234535 4.402079582 4.970089912
395 2 0.0 12.922234535 4.402079582 7.810141563
396 2 0.0 12.922234535 4.402079582 10.650194168
397 2 0.0 12.922234535 7.242130756 2.1300385
398 2 0.0 12.922234535 7.242130756 4.970089912
399 2 0.0 12.922234535 7.242130756 7.810141563
400 2 0.0 12.922234535 7.242130756 10.650194168
401 2 0.0 12.922234535 10.082182884 2.1300385
402 2 0.0 12.922234535 10.082182884 4.970089912
403 2 0.0 12.922234535 10.082182884 7.810141563
404 2 0.0 12.922234535 10.082182884 10.650194168
405 2 0.0 12.922234535 12.922234535 2.1300385
406 2 0.0 12.922234535 12.922234535 4.970089912
407 2 0.0 12.922234535 12.922234535 7.810141563
408 2 0.0 12.922234535 12.922234535 10.650194168
