LAMMPS data file via write_data, version 12 Dec 2018, timestep = 16600000

4240 atoms
3 atom types

7.7135378961933412e+01 1.1386462103806559e+02 xlo xhi
7.7135378961933412e+01 1.1386462103806559e+02 ylo yhi
7.7135378961933412e+01 1.1386462103806559e+02 zlo zhi

Masses

1 12
2 14
3 1.008

Atoms # charge

2705 1 2.7050047566836327e-01 7.9851819148864777e+01 8.3703588657269393e+01 8.0595760693897219e+01 -1 4 -2
4105 3 1.0416395925678366e-01 8.3262263925745202e+01 8.2281685496927182e+01 8.1836956434419903e+01 0 0 0
2706 2 -3.3904513379587903e-01 8.0303215851528506e+01 8.2591135205042050e+01 8.1141083142910873e+01 -1 4 -2
2709 1 -2.5554199696786697e-02 7.8140668927288829e+01 8.1914733002595952e+01 8.2024172105572873e+01 -1 4 -2
2710 1 2.7580503995224970e-01 7.9612035263841562e+01 8.1682559363481388e+01 8.1845201544373126e+01 -1 4 -2
2711 2 -3.2820982373800511e-01 8.0150955012267787e+01 8.0596683793604129e+01 8.2387779510881472e+01 -1 4 -2
4107 1 -8.5126668174009441e-03 8.3563646044544640e+01 8.4117634661874988e+01 8.3001194136756453e+01 0 0 0
68 1 -8.2589235613169137e-02 8.1505159112744792e+01 8.1402185823780144e+01 8.5115854918045770e+01 0 0 0
610 1 2.5806802047329630e-01 7.8495399626415960e+01 7.8840700700285808e+01 7.9825746214599278e+01 0 0 1
606 2 -2.6667723083860440e-01 7.8045828674523520e+01 8.0020886744098291e+01 7.9333295540959099e+01 0 0 1
609 1 -1.4369715957067604e-03 7.9970275906089128e+01 7.8612416981698431e+01 7.9829429752807371e+01 0 0 1
4106 1 -7.5768240250075669e-02 8.2211911558983445e+01 8.4320822821503910e+01 8.3286416898320738e+01 0 0 0
4110 3 1.2651120581234954e-01 8.1476995294155287e+01 8.3625264278096125e+01 8.3003806388433603e+01 0 0 0
72 3 1.1546842263498391e-01 8.0674455026471094e+01 8.0865626991061305e+01 8.4692934243300954e+01 0 0 0
69 1 -2.1038334475439496e-02 8.2876708611001831e+01 8.1198923462434408e+01 8.4874776408464484e+01 0 0 0
70 1 2.4187399753982627e-01 8.3949324133099978e+01 8.2058138109098181e+01 8.5433319292518192e+01 0 0 0
63 1 -8.8705873749414701e-02 8.3240794144604308e+01 8.0149516673590725e+01 8.4019972237466263e+01 0 0 0
67 3 1.3122243063391553e-01 8.2504116466725264e+01 7.9475963670230499e+01 8.3606988029365340e+01 0 0 0
4101 1 -7.2578126379751862e-02 8.3951851520320545e+01 8.3024850635798444e+01 8.2199068586110030e+01 0 0 0
64 1 -2.9594975468316558e-02 8.4593721226646039e+01 8.0020225683791296e+01 8.3682087128667433e+01 0 0 0
603 1 -3.3040646635796520e-02 8.0873643570241200e+01 7.9512686399082682e+01 7.9273109160235862e+01 0 0 1
2714 1 -2.9929782838766648e-02 7.7946626914360422e+01 7.9721509359238269e+01 8.3185796699865080e+01 -1 4 -2
2715 1 2.5192639950795115e-01 7.9424483421550832e+01 7.9630415484895295e+01 8.2994724151802103e+01 -1 4 -2
2716 2 -3.1862839841147217e-01 8.0080146711321319e+01 7.8523626666856273e+01 8.3360494353900947e+01 -1 4 -2
2703 1 -6.6801748177117232e-02 7.7555016616326128e+01 8.3128437178759214e+01 8.1515760234701077e+01 -1 4 -2
605 1 2.7203062638864783e-01 7.8822996202599455e+01 8.0876961964741326e+01 7.8674641452870787e+01 0 0 1
607 3 9.1077757823708250e-02 8.1932291357082164e+01 7.9292062637670355e+01 7.9251255388967223e+01 0 0 1
611 2 -2.6478598351715987e-01 7.7728479142174749e+01 7.7902307187341037e+01 8.0388287855649324e+01 0 0 1
604 1 4.5681758228034719e-05 8.0256170321642003e+01 8.0580618458990259e+01 7.8585232227769211e+01 0 0 1
4115 3 5.4657808829421908e-02 7.9723468578825745e+01 8.5202408281285742e+01 8.3697086359427942e+01 0 0 0
4112 1 -1.5690317944274362e-02 8.1832481872564045e+01 8.5451580940841694e+01 8.4039799381593738e+01 0 0 0
2704 1 -2.4647100074336434e-02 7.8413625640097720e+01 8.4011675243066691e+01 8.0782941531604422e+01 -1 4 -2
4109 2 -2.1803216631556127e-01 8.4151555715768112e+01 8.6047787531036164e+01 8.4343806320650003e+01 0 0 0
58 1 -7.0571531389008860e-02 8.4853478522722000e+01 7.8998459586017134e+01 8.2732186567644362e+01 0 0 0
2701 2 -3.0530935064584958e-01 8.0601464686562110e+01 8.4658243431078958e+01 7.9963835127158077e+01 -1 4 -2
4111 1 -5.9265558363282046e-02 8.0484831226065467e+01 8.5774182284272214e+01 8.4176449221931534e+01 0 0 0
4113 1 2.3800635082704344e-01 8.2896378472251143e+01 8.6338362178803180e+01 8.4606161277941254e+01 0 0 0
2698 1 -5.9925757509132677e-02 7.7886684264386076e+01 8.5123797365116204e+01 8.0071812205577771e+01 -1 4 -2
4117 1 -2.7470741393242255e-02 8.0196013027669238e+01 8.7017379555596833e+01 8.4785485587042132e+01 0 0 0
2551 3 9.4625668775243546e-02 8.2059294995549720e+01 8.7464937172099866e+01 8.1421852921356830e+01 0 0 0
4116 1 -5.9372253764815974e-02 7.8862782056295529e+01 8.7441731253679052e+01 8.4871893719426353e+01 0 0 0
4114 2 -2.0754799034469265e-01 8.2570545209280453e+01 8.7460325673711182e+01 8.5311761122782343e+01 0 0 0
2550 3 4.5893073225977944e-02 7.9663882163004331e+01 8.7885905928540893e+01 8.2124591597293787e+01 0 0 0
4118 1 2.4284645754036438e-01 8.1313839694747344e+01 8.7826537946034335e+01 8.5363470737620290e+01 0 0 0
2547 1 5.2107438703426164e-02 8.1807799584657076e+01 8.8366794444016563e+01 8.1961374774274276e+01 0 0 0
2700 1 2.5315853537236432e-01 8.0165480334849590e+01 8.5757266970172651e+01 7.9354264020390787e+01 -1 4 -2
2699 1 -3.1419902080501896e-02 7.8713316870351179e+01 8.6076286345607429e+01 7.9463657766386405e+01 -1 4 -2
4122 1 -3.3918888140137798e-02 7.8618142775145387e+01 8.8732040548399482e+01 8.5449076124547204e+01 0 0 0
4120 3 3.7377862978314504e-02 7.8071172309109869e+01 8.6815877559287202e+01 8.4596532975230843e+01 0 0 0
4108 1 2.3741961006378259e-01 8.4610615933140238e+01 8.5007846023185024e+01 8.3554507584643389e+01 0 0 0
4100 3 6.2548987762425054e-02 8.5129817993867078e+01 8.1170999205829304e+01 8.0497010914978915e+01 0 0 0
4102 1 -2.2602027514788112e-02 8.5333840250498042e+01 8.2881769063365155e+01 8.1877251152868936e+01 0 0 0
2708 1 -6.9565248719869313e-02 7.7370678608975510e+01 8.0966821163436848e+01 8.2736236344832051e+01 -1 4 -2
608 1 -3.8660899813229871e-02 8.0543091567752228e+01 7.7452540084925033e+01 8.0373232876899309e+01 0 0 1
2433 2 -2.8327143425523549e-01 8.6046944294303557e+01 8.1710738304438053e+01 7.7487291332487118e+01 0 0 1
66 2 -2.7889562326234230e-01 8.5220222269040363e+01 8.1767208028401129e+01 8.5169340952853702e+01 0 0 0
2719 1 -1.1117402877577971e-02 7.7926483073678341e+01 7.7467238244727866e+01 8.4024342246801126e+01 -1 4 -2
2713 1 -5.9970164626762253e-02 7.7222974003415956e+01 7.8639560103721735e+01 8.3731098726134903e+01 -1 4 -2
65 1 2.3757385805986075e-01 8.5644307002917941e+01 8.0820011203410004e+01 8.4288435933410341e+01 0 0 0
601 2 -2.7577106263721696e-01 7.8363721006288571e+01 8.1942165774608128e+01 7.7978711598733824e+01 0 0 1
62 3 5.4329309395210884e-02 8.4048528125518786e+01 7.8454312757956544e+01 8.2317454125027766e+01 0 0 0
2865 1 7.2830313763574878e-02 8.5218964777485468e+01 8.7338640503448516e+01 8.0494160585388443e+01 0 0 1
2869 3 1.0870432684909118e-01 8.4314746301468389e+01 8.7127512518235406e+01 8.1034113592900383e+01 0 0 1
2693 1 -6.7561858276385722e-02 7.8309962257868406e+01 8.7210923851557908e+01 7.8718610392354250e+01 -1 4 -2
2866 2 -1.9387285421976697e-01 8.5534855600907491e+01 8.8621354715389444e+01 8.0373404360532433e+01 0 0 1
598 1 -3.4128773958803732e-02 8.1105475170312417e+01 8.1564451372151723e+01 7.8025014183161062e+01 0 0 1
2868 3 1.0245903711399595e-01 8.5877662788271607e+01 8.5252293917637118e+01 8.0063309530444840e+01 0 0 1
2864 1 -5.6423971812449028e-02 8.6001665291766301e+01 8.6299998746078856e+01 7.9890811679531623e+01 0 0 1
3746 2 -2.2662681601362933e-01 8.5607526351946063e+01 8.8245991219606168e+01 8.5924247510021686e+01 0 0 0
602 3 7.2271808278234151e-02 8.2225712386650216e+01 8.1512440823996144e+01 7.8033516221167986e+01 0 0 1
2696 2 -2.7095828603405869e-01 8.1073206549265990e+01 8.6555301698407888e+01 7.8746622133736437e+01 -1 4 -2
4096 1 -5.5883370008307592e-02 8.5748465408047338e+01 8.1829684504582531e+01 8.1063116902510288e+01 0 0 0
4104 2 -2.4625958254850658e-01 8.5867649058408503e+01 8.4839123451193274e+01 8.3240505809279895e+01 0 0 0
2697 3 8.7096592163513356e-02 7.7265225349374461e+01 8.7503798601689653e+01 7.8704651507103293e+01 -1 4 -2
77 3 4.5352801672408384e-02 7.9133704999723093e+01 8.2207635866054019e+01 8.5566383957851031e+01 0 0 0
74 1 -3.2862409245724714e-02 8.1271231165134722e+01 8.2554122177437151e+01 8.5864854651246389e+01 0 0 0
2694 1 -2.2976753683458213e-02 7.9246231482321633e+01 8.7941522299067628e+01 7.7922580105580892e+01 -1 4 -2
2695 1 2.4628148124389443e-01 8.0704791583314488e+01 8.7546427299904479e+01 7.7934013772981643e+01 -1 4 -2
599 1 -6.4684259246428136e-03 8.0585359812455749e+01 8.2653082718607408e+01 7.7357135153428459e+01 0 0 1
600 1 2.6332081572364574e-01 7.9103172489469145e+01 8.2823841411886519e+01 7.7236316694152237e+01 0 0 1
4119 2 -2.4445419215944805e-01 8.0986141496170688e+01 8.9038347528622936e+01 8.5927890723561262e+01 0 0 0
2691 2 -2.2883267957532827e-01 8.1545715507125294e+01 8.8264153482715784e+01 7.7201840139502906e+01 -1 4 -2
612 3 7.4350665255309409e-02 8.1646576449584430e+01 7.7314759094661298e+01 8.0369199759550213e+01 0 0 1
73 1 -6.6930169159272773e-02 7.9886552415599823e+01 8.2777479537175523e+01 8.6041827550220290e+01 0 0 0
2438 3 6.4316541390639623e-02 8.4464066800044463e+01 8.0467816183448505e+01 7.7338520199441533e+01 0 0 1
2546 1 -6.2691197298921780e-02 8.0423190509277688e+01 8.8627194858820786e+01 8.2332625479359919e+01 0 0 0
4103 1 2.3473251128263742e-01 8.6296239725871970e+01 8.3876009313018301e+01 8.2437314711907362e+01 0 0 0
2720 1 2.6203783628921817e-01 7.9431696871870940e+01 7.7454957156618434e+01 8.3821399633133112e+01 -1 4 -2
4121 1 -6.1068818227317953e-02 7.7373173253561205e+01 8.9313590854512071e+01 8.5257721819059057e+01 0 0 0
2548 2 -1.9878019532839203e-01 8.2842051871740026e+01 8.9221718900831590e+01 8.2143815881744558e+01 0 0 0
1122 3 5.1570846891564506e-02 7.7200556356669608e+01 8.8637634448104023e+01 8.1218019623928924e+01 0 -2 2
59 1 -3.6174644892340298e-02 8.6177792481625360e+01 7.8697296466620614e+01 8.2455756361758120e+01 0 0 0
1636 2 -2.0755132789796232e-01 8.4513524303413917e+01 8.9262212379251991e+01 7.7211203030538698e+01 1 0 0
71 2 -2.8253256638108315e-01 8.3598429221006938e+01 8.3034504434340590e+01 8.6306257046903468e+01 0 0 0
394 2 -3.0467937967062497e-01 8.0564159901383420e+01 7.7286347682674020e+01 7.7166642337691130e+01 1 0 1
2436 1 9.1183447844488869e-02 8.5509733003083142e+01 8.0569253038564270e+01 7.7145067408248309e+01 0 0 1
54 1 -3.4201381494708742e-02 8.7805028813095504e+01 7.7273485916000965e+01 8.1534280526283013e+01 0 0 0
4091 1 -5.4876295253964924e-02 8.7614550549710970e+01 8.0691316312124727e+01 7.9985484780554089e+01 0 0 0
3745 1 2.5299043704528917e-01 8.6406503879830737e+01 8.8460454226175003e+01 8.4866045543984598e+01 0 0 0
3732 3 4.9375669520388757e-02 9.0818551422674773e+01 8.9291177434949432e+01 7.9646266905565625e+01 0 0 0
3347 2 -2.6557687354514714e-01 8.8907658894032394e+01 8.1365011172088259e+01 8.6195788952379658e+01 0 0 0
3714 2 -2.5653929574723611e-01 9.5210244968321319e+01 8.2653730587859783e+01 7.7488054713591438e+01 0 0 0
3719 1 -2.3486591863039013e-02 9.5126207984162605e+01 8.5117611308662291e+01 7.7473162872999353e+01 0 0 0
3563 1 2.4691636574318232e-01 9.5104367043142901e+01 8.2738526705437636e+01 8.6020385760220364e+01 0 0 0
3342 2 -2.2275133570761002e-01 9.0374096100959093e+01 8.2303409607274645e+01 8.4635239401319140e+01 0 0 0
4090 3 9.2406762950876437e-02 8.8938266507938323e+01 7.8847696997917325e+01 7.8479089962849770e+01 0 0 0
2872 1 2.4770549418845553e-01 8.6525003879267601e+01 8.9143774912111098e+01 7.9624040288527482e+01 0 0 1
4088 1 2.3513238624048383e-01 9.1822174278003871e+01 8.0580703907410097e+01 7.9471173984813788e+01 0 0 0
3924 1 -8.0999581767156936e-02 9.5298412442316049e+01 8.8516932007675933e+01 8.3854970352333993e+01 1 -1 0
3723 1 -5.4064826061066558e-02 9.2435423938107732e+01 8.7309962629399863e+01 7.8800809828979069e+01 0 0 0
2428 2 -2.9537091104786023e-01 8.7731771804567913e+01 8.3300376170336321e+01 7.7175315359962568e+01 0 0 1
4092 1 -1.0353897666325142e-02 8.9021542906367415e+01 8.0638572359987080e+01 7.9784122780790980e+01 0 0 0
3336 1 2.7187350678575062e-01 9.2611528507162134e+01 8.4444073984070272e+01 8.2713648798215146e+01 0 0 0
3329 1 -6.3064401980311768e-02 9.2558379520545259e+01 8.6935296444636364e+01 8.2380603761665284e+01 0 0 0
3926 2 -2.6366137525055999e-01 9.3184090409484668e+01 8.8738836892223887e+01 8.5058465786631260e+01 1 -1 0
3733 1 -5.3264607065122177e-02 8.8964073976450280e+01 8.9274720792084878e+01 8.1613911800355879e+01 0 0 0
3332 2 -2.8076554464628012e-01 9.3749615670842886e+01 8.4415727252713367e+01 8.2016147449200886e+01 0 0 0
53 1 -7.2058269484669202e-02 8.6460785965122781e+01 7.7499283756238412e+01 8.1756143472491374e+01 0 0 0
4079 2 -2.6510228181289874e-01 9.5138112582309759e+01 7.9779693400188350e+01 7.8488233111351079e+01 0 0 0
3720 1 2.3861539590274986e-01 9.4567805135841155e+01 8.3741502477472338e+01 7.7833457527866955e+01 0 0 0
60 1 2.3566571296061434e-01 8.7249663652753924e+01 7.9534441035102873e+01 8.3044058311051700e+01 0 0 0
56 2 -2.5709556025642560e-01 8.8523048694011692e+01 7.9250541059347654e+01 8.2744666549157998e+01 0 0 0
3721 2 -2.5257393864058586e-01 9.3419108995978064e+01 8.3711079478260913e+01 7.8538237130505124e+01 0 0 0
3725 1 2.4175279183732851e-01 9.2751024258779267e+01 8.4807121689196165e+01 7.8892889360198694e+01 0 0 0
3722 3 5.6718973968960265e-02 9.4829755675622607e+01 8.7252611424070011e+01 7.7571012773397158e+01 0 0 0
2863 1 -5.4286454741090930e-02 8.7055468911793994e+01 8.6710595854523021e+01 7.9105138444249675e+01 0 0 1
2608 1 -5.4524561620006018e-03 9.3172794982563033e+01 7.7342329699256013e+01 8.3306104272406117e+01 0 1 0
3324 1 -5.9137096425009972e-02 9.4317452502972515e+01 8.8026391068452313e+01 8.1192531675256959e+01 0 0 0
3925 1 7.1650485410763853e-02 9.4310336648441876e+01 8.8107440496750698e+01 8.4799534771207277e+01 1 -1 0
2606 3 9.3892221368927609e-02 9.1128531312284267e+01 7.7556915797156819e+01 8.4154618432692345e+01 0 1 0
3564 2 -2.9635963307976909e-01 9.5481454561916067e+01 8.1621631704585027e+01 8.5367992246070827e+01 0 0 0
3330 1 -2.2046464378932255e-02 9.3774677191369406e+01 8.6839812920655191e+01 8.1759311414639143e+01 0 0 0
3343 3 1.7577754009767946e-01 8.8621836202908923e+01 8.5777158367018259e+01 8.5210973760472626e+01 0 0 0
4089 2 -2.0704171966936979e-01 9.1242810307297304e+01 8.1580468172383760e+01 8.0165058026386959e+01 0 0 0
3338 3 1.2385604460752801e-01 9.0413418358991890e+01 8.6885885511023190e+01 8.3781180821311921e+01 0 0 0
3328 3 5.5284191971945437e-02 9.3798194824569038e+01 8.8959647216523052e+01 8.1349083011764492e+01 0 0 0
61 2 -2.4589530172930033e-01 8.6903124050141386e+01 8.0536636301827258e+01 8.3895668909084307e+01 0 0 0
3718 1 -4.9902992046122717e-02 9.4441446135368196e+01 8.6291696432430655e+01 7.7788341347169563e+01 0 0 0
3345 1 -3.1054039123697835e-03 8.8560800592650878e+01 8.3659644297450328e+01 8.5710898913695473e+01 0 0 0
3739 1 -1.4157984709944040e-02 8.8063392378131141e+01 8.8982237048266157e+01 8.2627704400688074e+01 0 0 0
4085 3 1.3555411185595867e-01 9.1048865438061000e+01 7.7840526096289935e+01 7.7472660548025488e+01 0 0 0
3741 2 -2.6156147048465245e-01 8.6987106941459047e+01 8.7429875496469066e+01 8.4196718775782642e+01 0 0 0
2870 1 -8.7780520744956625e-02 8.8399656962024224e+01 8.8504605927739334e+01 7.8100977375359506e+01 0 0 1
4095 3 7.9294466706505348e-02 8.6906332492767064e+01 7.9908912068581856e+01 7.9696851354510315e+01 0 0 0
3335 1 -6.6622543410217311e-03 9.2029467197856349e+01 8.5761921260312789e+01 8.2948145127521116e+01 0 0 0
3334 1 -3.6632153980803064e-02 9.0843860125293375e+01 8.5867952958632216e+01 8.3718154822663877e+01 0 0 0
2607 1 -7.4295566691765624e-02 9.3424541255638644e+01 7.8735895734617543e+01 8.3134924565111504e+01 0 1 0
4098 1 2.2867716295021845e-01 8.8083973819835137e+01 8.2780278243845046e+01 8.1297813022478067e+01 0 0 0
4081 1 -8.2366140309123759e-02 9.1636631182265148e+01 7.8602221542775780e+01 7.7959669793386922e+01 0 0 0
2612 1 -6.7782751103747374e-02 9.4838265391189964e+01 8.0390759311862325e+01 8.1986785201767603e+01 0 1 0
3735 1 2.2697635545272268e-01 8.9262691843649407e+01 8.6794015346412991e+01 8.1441876647335334e+01 0 0 0
2874 3 1.4888593772239769e-01 8.9083099980323823e+01 8.7765459154114197e+01 7.7734854257307518e+01 0 0 1
3333 3 8.9712917984153540e-02 9.2010538689176840e+01 8.7800366642436657e+01 8.2558195544097913e+01 0 0 0
2871 1 -2.5470039304379896e-04 8.7405274611890775e+01 8.8124631369630222e+01 7.8986426010952613e+01 0 0 1
3346 1 2.5336606801783451e-01 8.9324730667577839e+01 8.2409831528644361e+01 8.5481187645246607e+01 0 0 0
2613 1 9.0926984224756167e-03 9.4672266019643288e+01 7.9081519745297058e+01 8.2521599954405488e+01 0 1 0
4083 1 2.6115100121627516e-01 9.3860009978905481e+01 7.9667245664194951e+01 7.8646031771377750e+01 0 0 0
4093 1 2.3239115203216187e-01 8.9918514261801121e+01 8.1679995099929044e+01 8.0344007722298286e+01 0 0 0
4087 1 -1.8024678313111105e-02 9.0979317543248186e+01 7.9556785791841833e+01 7.8797046409716188e+01 0 0 0
3339 1 -7.0911108334890866e-02 8.9114637716031126e+01 8.4848375601235801e+01 8.5095499965594072e+01 0 0 0
3559 2 -2.7477098610206441e-01 9.3864054942823003e+01 8.3261350581941542e+01 8.5979469584874479e+01 0 0 0
3727 3 5.9597514663449494e-02 9.2701754274606159e+01 8.8248557823914993e+01 7.8455313358125409e+01 0 0 0
3734 1 -3.9608712311543767e-02 8.9610659249834669e+01 8.8165415923599767e+01 8.1052352098744180e+01 0 0 0
4099 2 -2.1192237049553730e-01 8.7595374763308001e+01 8.3760525799180783e+01 8.2107318238158086e+01 0 0 0
3929 3 6.0061615724395959e-02 9.4447894259467191e+01 8.7135525014529009e+01 8.5207613122987482e+01 1 -1 0
3730 1 2.3451277662313721e-01 9.0988854703730738e+01 8.5855401728394739e+01 8.0092046286930511e+01 0 0 0
3729 1 -3.4089299238071843e-02 9.1347088809046014e+01 8.7232224682736643e+01 7.9629205071328698e+01 0 0 0
2867 3 1.6290533226218104e-01 8.7534990974115331e+01 8.5935452286906298e+01 7.8485861763282628e+01 0 0 1
3728 1 -6.6802047732840417e-02 9.0593563260623142e+01 8.8354179939145212e+01 8.0077419055788567e+01 0 0 0
3726 2 -2.2114775666142319e-01 9.1676339702258019e+01 8.4760647006754297e+01 7.9696039929617328e+01 0 0 0
4086 1 -6.6149832459042282e-02 8.9551340463759644e+01 7.9601672807015333e+01 7.8956877273797843e+01 0 0 0
3736 2 -2.7336443000571048e-01 8.8375993846856829e+01 8.6623987499656621e+01 8.2450792687183451e+01 0 0 0
51 2 -2.9734416859829416e-01 9.0139154110025260e+01 7.7970651435866472e+01 8.1583839786200357e+01 0 0 0
55 1 2.4171819529148267e-01 8.8880838118533063e+01 7.8217192074750585e+01 8.1957703034725213e+01 0 0 0
3341 1 2.5796289496571645e-01 9.0958452143974171e+01 8.3396452669086102e+01 8.4049327287203525e+01 0 0 0
4094 2 -1.8887879740387428e-01 8.9386844448017442e+01 8.2693365804546630e+01 8.1048819859476851e+01 0 0 0
4097 1 -1.1820832132361996e-02 8.7137801286789085e+01 8.1764944085671758e+01 8.0753286188590479e+01 0 0 0
3340 1 3.0015910201127437e-02 9.0276784338925424e+01 8.4686957964419577e+01 8.4286131366901415e+01 0 0 0
3731 2 -2.4630075602820417e-01 9.0009378592752881e+01 8.5762741786577962e+01 8.0963780079101667e+01 0 0 0
2611 3 1.4192875140643924e-01 9.2624366173891858e+01 7.9425785878368160e+01 8.3344520761238883e+01 0 1 0
3740 1 2.4522720326888112e-01 8.7754728402134788e+01 8.7586340855544591e+01 8.3117115965026500e+01 0 0 0
4084 2 -2.5978355409169229e-01 9.3151568699717032e+01 8.0439237347661376e+01 7.9475075287257241e+01 0 0 0
4082 1 -3.4301592141026335e-03 9.3040190419686240e+01 7.8665164341633130e+01 7.7816967877394120e+01 0 0 0
2616 3 1.7504815555073272e-01 9.4013581354367417e+01 8.1117896622135234e+01 8.2071424953432143e+01 0 1 0
3337 2 -2.2140093209265294e-01 9.2035004533050113e+01 8.3344654918274202e+01 8.3285532639190777e+01 0 0 0
3331 1 2.6753735269271994e-01 9.4343023932854294e+01 8.5488650498128067e+01 8.1467861167920134e+01 0 0 0
3724 1 -2.5360359223765901e-02 9.3156325506268686e+01 8.6157846948247766e+01 7.8394009616366617e+01 0 0 0
3327 2 -3.4326732087845857e-01 9.5484697107215766e+01 8.5464942292007322e+01 8.0729314518720585e+01 0 0 0
1815 1 -6.4955767340243359e-02 7.9484340594223184e+01 7.9890894835381516e+01 8.7119142017704220e+01 1 -1 1
80 1 2.2969303088312543e-01 8.0685464032622576e+01 8.4838228834972469e+01 8.7322006589689835e+01 0 0 0
1821 1 -1.6930736359794498e-02 8.0437066775977684e+01 7.8883293813906121e+01 8.7050204965568469e+01 1 -1 1
84 1 -2.4839416988695899e-02 7.8014343593879502e+01 8.5724966966216414e+01 8.7375949151237521e+01 0 0 0
81 2 -2.2329500272276065e-01 8.0398534363622431e+01 8.5975914274326598e+01 8.7934904830122093e+01 0 0 0
85 1 2.2686162836403909e-01 7.9155360291592743e+01 8.6496672058842648e+01 8.7972359322936583e+01 0 0 0
86 2 -2.1442008070556057e-01 7.8867978230681928e+01 8.7660231096367724e+01 8.8565809505817512e+01 0 0 0
4001 1 -2.8241086296102010e-02 7.9214449578212040e+01 8.2658225329920199e+01 9.0489093081640448e+01 1 0 0
3995 1 -6.5869828167036779e-02 8.0502291800924610e+01 8.2069644624192222e+01 9.0397782691325204e+01 1 0 0
3999 3 6.6457104759561847e-02 8.1405448660665769e+01 8.2654311831658958e+01 9.0456575080753737e+01 1 0 0
3997 1 2.5662839004985760e-01 7.9384066420239748e+01 7.9825766526751167e+01 9.0203996383030031e+01 1 0 0
3996 1 -3.6341857884166037e-02 8.0617060660979732e+01 8.0664416340803655e+01 9.0232636999360281e+01 1 0 0
4000 1 -6.3452431432472894e-02 7.8996599955429105e+01 8.4022668765471920e+01 9.0678157932735616e+01 1 0 0
3363 3 4.5167118064626470e-02 8.3808409677584109e+01 8.1684106065030093e+01 9.2563086085223119e+01 0 0 0
2008 1 2.5568145943569803e-01 7.9047049128663573e+01 7.8979861108525654e+01 9.3361845523341245e+01 1 0 -1
3365 1 -6.0477828327842945e-02 8.4264896457783678e+01 7.9700200760371274e+01 9.3365642261527867e+01 0 0 0
4004 3 9.7084062770018631e-02 7.9861605234189227e+01 8.4740065158704382e+01 9.0699190575093454e+01 1 0 0
2007 1 -2.0060461218680239e-02 8.0518211909831621e+01 7.9381279995578794e+01 9.3261168692505791e+01 1 0 -1
2004 2 -2.7503300417437082e-01 7.8075178553709193e+01 7.9877291980079463e+01 9.3503717890429584e+01 1 0 -1
2001 1 -5.8684407866142985e-02 8.0831983793962308e+01 8.0754905591401524e+01 9.3330438385035990e+01 1 0 -1
2003 1 2.5780294017427591e-01 7.8312929988715112e+01 8.1196140332551977e+01 9.3667196842847602e+01 1 0 -1
2002 1 -2.5704812056478100e-02 7.9732251324814669e+01 8.1621231702195672e+01 9.3583702883995542e+01 1 0 -1
1996 1 -5.3729090329294960e-02 7.9984307778482318e+01 8.2971986553281909e+01 9.3906372219676101e+01 1 0 -1
3359 1 -6.3132771929854448e-02 8.4325471298597662e+01 8.0785389615646977e+01 9.2408682893409306e+01 0 0 0
2005 3 5.4139191026639055e-02 8.1812801715327254e+01 8.1063949172152633e+01 9.3178364259619769e+01 1 0 -1
3990 1 -6.7919916181176460e-02 8.1880119436281532e+01 8.0027023586306200e+01 9.0226686541470926e+01 1 0 0
3991 1 -3.0598205387172173e-02 8.1922840320156240e+01 7.8610185425276811e+01 9.0173356044916076e+01 1 0 0
3360 1 -3.7402142438546254e-02 8.5127030704466108e+01 8.0665085113266983e+01 9.1268982409314219e+01 0 0 0
3993 2 -2.9822204900608401e-01 7.9496468603508333e+01 7.8497270859049905e+01 9.0155435119191196e+01 1 0 0
3994 3 6.4979376453680654e-02 8.2763423735910763e+01 8.0588133924444605e+01 9.0307030272113195e+01 1 0 0
3366 1 2.5001196104244444e-01 8.4929108898987849e+01 7.8451339813451128e+01 9.2907816991381026e+01 0 0 0
3358 3 7.7600229154636297e-02 8.4743985097558422e+01 8.2671550934053585e+01 9.0626678389284095e+01 0 0 0
3354 1 -6.5550428351103002e-02 8.5201763143719546e+01 8.1741013917344659e+01 9.0343224963318988e+01 0 0 0
3989 3 1.0074973039796618e-01 8.4080675086712176e+01 7.8515636562630803e+01 9.0151108679101668e+01 1 0 0
897 1 -4.0828069101963078e-02 8.4517183438076273e+01 8.5394489483634203e+01 9.3788608637802582e+01 0 0 0
891 1 -5.5439508628131011e-02 8.3289312923661143e+01 8.5890809814651547e+01 9.4391428303280364e+01 0 0 0
3985 1 -7.4606047567572192e-02 8.3154042425746823e+01 7.7966700067010564e+01 9.0140443441721729e+01 1 0 0
2010 3 8.6689235246599106e-02 8.2566368756896523e+01 7.8512976328385960e+01 9.2922816047248787e+01 1 0 -1
2006 1 -4.4688978389337941e-02 8.1506540354321359e+01 7.8372491171655682e+01 9.3113241047065600e+01 1 0 -1
1816 1 -2.0175495258487129e-02 7.8127484811404145e+01 7.9470109588387388e+01 8.7114328303139686e+01 1 -1 1
1826 1 -1.9340002687764306e-02 8.2699272240573109e+01 7.8172682561089289e+01 8.6886232004002309e+01 1 -1 1
1820 1 -6.4487588303920623e-02 8.1781121086157313e+01 7.9236350080717600e+01 8.7114359670652732e+01 1 -1 1
900 3 4.7496008772541398e-02 8.4270240385003916e+01 8.3415541392040481e+01 9.4628627239512582e+01 0 0 0
1997 1 -2.6006794887264248e-02 7.8940268909793204e+01 8.3785732954167642e+01 9.4442651168642541e+01 1 0 -1
1819 3 7.6426322026420537e-02 7.9821576990607042e+01 8.0895711859891051e+01 8.7192102506820120e+01 1 -1 1
3992 1 2.6290501129776861e-01 8.0637975263589283e+01 7.7842798643379140e+01 9.0096879532563833e+01 1 0 0
1822 1 2.5219793516846489e-01 7.9970895878079986e+01 7.7407545978046173e+01 8.7026783276431630e+01 1 -1 1
4009 3 1.1079509904909970e-01 7.8328786052708523e+01 8.6433114803322212e+01 9.1301993956610445e+01 1 0 0
90 1 2.2494663323391445e-01 7.7636782834391326e+01 8.8243500650938017e+01 8.8532815468017475e+01 0 0 0
1824 3 7.6773857099969783e-02 8.1999755231155973e+01 8.0262950974888696e+01 8.7281260935501066e+01 1 -1 1
3998 2 -2.8488385095032015e-01 7.8169404080514596e+01 8.0407116185719872e+01 9.0155644264762472e+01 1 0 0
76 2 -2.4054635658341386e-01 8.1960971566778412e+01 8.4470587574303906e+01 8.7230332296302223e+01 0 0 0
896 1 -5.3518379965390432e-02 8.4889249550237793e+01 8.4082375845118065e+01 9.4060576973760604e+01 0 0 0
898 1 2.5671469424701077e-01 8.5249437947388245e+01 8.6205845313997600e+01 9.2730603023541263e+01 0 0 0
1817 1 2.4658941419260530e-01 7.7749384194022397e+01 7.8040145630536756e+01 8.7048568615786152e+01 1 -1 1
905 3 7.8488761164603890e-02 8.5831231022155976e+01 8.1549663694874496e+01 9.4281567862817724e+01 0 0 0
902 1 -4.3563986541026306e-02 8.5960404415871665e+01 8.3488234603570646e+01 9.3338753116172740e+01 0 0 0
899 2 -3.2154851969857234e-01 8.6294971480770030e+01 8.5579802017545589e+01 9.2104221896894956e+01 0 0 0
2813 3 1.5756948876887750e-01 8.5788267136358968e+01 8.8041576744425086e+01 8.9787600681004932e+01 0 0 -1
2000 3 4.5829761554697729e-02 8.0959116101987874e+01 8.3361440472451250e+01 9.3811620034571263e+01 1 0 -1
4002 1 2.5306982701057140e-01 7.8051885171387099e+01 8.1741746829746845e+01 9.0281196009825763e+01 1 0 0
79 1 -3.0844370015761124e-02 7.9617030200867603e+01 8.3966986083139417e+01 8.6717622177814192e+01 0 0 0
78 1 -5.7481903034994786e-02 7.8285230461498458e+01 8.4463287490097372e+01 8.6823625027933403e+01 0 0 0
4005 1 -7.4246735870339003e-02 7.7492604973608664e+01 8.5804754540355759e+01 9.1089848550913516e+01 1 0 0
1825 1 -8.0070585467805086e-02 8.4085885866205800e+01 7.8419391125728424e+01 8.6741827009917031e+01 1 -1 1
3368 3 3.3812695092219812e-02 8.3217254545706311e+01 8.0687228531533236e+01 9.5011127644755035e+01 0 0 0
3364 1 -5.4993636806381516e-02 8.3728738892850757e+01 7.9775827819279073e+01 9.4645321168564806e+01 0 0 0
2009 2 -2.6831737861158378e-01 7.8717792622850908e+01 7.7696697159731229e+01 9.3137647628608519e+01 1 0 -1
4006 1 -1.8846840643669517e-02 7.7665501798443572e+01 8.4468074722731529e+01 9.0768825155209271e+01 1 0 0
1999 2 -2.7443345084861193e-01 7.7309809314086053e+01 8.2006491907142575e+01 9.4018232344447611e+01 1 0 -1
894 2 -3.1466615200255943e-01 8.4816975124071149e+01 8.7375352314699498e+01 9.2433494830318750e+01 0 0 0
892 1 -3.7721635664822908e-02 8.2891300071369045e+01 8.7182504954675863e+01 9.4014818934846346e+01 0 0 0
3353 3 1.1126552253255534e-01 8.5571567961494452e+01 8.3574183906011370e+01 8.8602544081996001e+01 0 0 0
1829 3 9.4990044182672623e-02 8.4445268426850930e+01 7.9403683313624128e+01 8.6706188037282615e+01 1 -1 1
1831 1 -2.7685470135596153e-02 8.5005792638351451e+01 7.7332567690598637e+01 8.6769804137397841e+01 1 -1 1
3362 2 -3.2457637703037112e-01 8.5731146475639747e+01 7.8397140723514184e+01 9.1820571815026170e+01 0 0 0
3361 1 2.4623946287996998e-01 8.5882695927702613e+01 7.9446377975246122e+01 9.0976774914563222e+01 0 0 0
3751 2 -2.3420987733336235e-01 8.3922138458813805e+01 8.8950864116133587e+01 8.7428950785730720e+01 0 0 0
893 1 2.5277013687557537e-01 8.3715038197464295e+01 8.7944031038352222e+01 9.3041628491079777e+01 0 0 0
1814 3 7.4120211562211602e-02 7.7411691627923389e+01 8.1505949631507292e+01 8.7468440803847500e+01 1 -1 1
886 1 -5.6576174602606270e-02 8.1730186584983471e+01 8.7760193659567932e+01 9.4644115225680309e+01 0 0 0
1992 1 -3.4099987300362997e-02 7.8054283167082147e+01 8.5828826720359672e+01 9.5446790232584249e+01 1 0 -1
1998 1 2.5171360109056173e-01 7.7531149877056336e+01 8.3281856316042024e+01 9.4377852601439486e+01 1 0 -1
4191 3 1.1653414379450046e-01 8.5722015881220784e+01 8.9105377291186869e+01 9.4131242071514507e+01 0 0 0
3355 1 -1.8953809772567144e-02 8.6056023983931823e+01 8.1591581173724578e+01 8.9247279409995841e+01 0 0 0
895 3 4.7061324254865575e-02 8.2705953219723881e+01 8.5343493223441811e+01 9.5095364169896982e+01 0 0 0
1995 3 5.4376126982955450e-02 8.0120925317230203e+01 8.5559057330777421e+01 9.4943914601653802e+01 1 0 -1
1991 1 -5.5405138607400206e-02 7.9153444581500807e+01 8.5123073832904723e+01 9.4888089762139941e+01 1 0 -1
3371 1 2.5821518790095571e-01 8.4434869691072123e+01 7.7418989512554163e+01 9.4983066007979531e+01 0 0 0
3367 2 -3.4177596890358330e-01 8.4986139624810903e+01 7.7404921617099873e+01 9.3752886690091401e+01 0 0 0
3349 1 -6.2007187786869880e-02 8.6210793301090206e+01 8.2703370263317893e+01 8.8433309679160217e+01 0 0 0
75 1 2.3317321685526970e-01 8.2336340503091151e+01 8.3373335328327144e+01 8.6493081108860110e+01 0 0 0
3750 1 2.5488360746722521e-01 8.4808662085642354e+01 8.9172853916219267e+01 8.6459474718039004e+01 0 0 0