LAMMPS data file via write_data, version 22 Dec 2022, timestep = 4000

3198 atoms
3 atom types

0 28.7403 xlo xhi
0 28.7403 ylo yhi
0 86 zlo zhi

Masses

1 52
2 55.84
3 16

Atoms # charge

1 2 0.03025509725114989 0 0 0 0 0 0
2 2 0.01474964394088407 1.43701 1.43701 1.43687 0 0 0
3 2 0.03175844490679522 2.87403 0 0 0 0 0
4 2 0.01341653436743923 4.31105 1.43701 1.43687 0 0 0
5 2 0.03118909996747309 5.74806 0 0 0 0 0
21 2 0.02858415836319306 0 2.87403 0 0 0 0
22 1 0.03560845719625526 1.43701 4.31105 1.43687 0 0 0
23 2 0.02753222613434332 2.87403 2.87403 0 0 0 0
24 2 0.01354445992075364 4.31105 4.31105 1.43687 0 0 0
25 2 0.03019923783740221 5.74806 2.87403 0 0 0 0
41 2 0.02664814952784458 0 5.74806 0 0 0 0
43 1 0.04646206542505928 2.87403 5.74806 0 0 0 0
45 2 0.02758122164277323 5.74806 5.74806 0 0 0 0
201 2 0.01283071599152032 0 0 2.87417 0 0 0
202 1 0.03501703410324111 1.43701 1.43701 4.31104 0 0 0
203 1 0.03328578251774148 2.87403 0 2.87417 0 0 0
204 2 0.01257596043332379 4.31105 1.43701 4.31104 0 0 0
205 1 0.04218031641040113 5.74806 0 2.87417 0 0 0
221 2 0.01409022529679872 0 2.87403 2.87417 0 0 0
222 2 0.01370596853875202 1.43701 4.31105 4.31104 0 0 0
223 2 0.01761967708327331 2.87403 2.87403 2.87417 0 0 0
224 2 0.01927915623426381 4.31105 4.31105 4.31104 0 0 0
225 2 0.01773634597476347 5.74806 2.87403 2.87417 0 0 0
241 2 0.01652892714646865 0 5.74806 2.87417 0 0 0
243 2 0.01408056877817383 2.87403 5.74806 2.87417 0 0 0
245 2 0.01763448915625337 5.74806 5.74806 2.87417 0 0 0
423 2 0.01481404305631046 2.862097220152346 3.057466433038823 5.64147385662898 0 0 0
425 2 0.0178363373959666 5.8046896675729664 3.046918016708304 5.808322998402266 0 0 0
443 1 0.03857326144063573 2.916618763329751 5.642759085214603 5.7662091834444995 0 0 0
445 2 0.01483769542980556 5.687693490828135 5.602230875941536 5.8027273415622425 0 0 0
6 2 0.0106243937650496 7.18508 1.43701 1.43687 0 0 0
7 2 0.0306277210520233 8.62209 0 0 0 0 0
8 2 0.01460867387937338 10.0591 1.43701 1.43687 0 0 0
9 2 0.02909883596605294 11.4961 0 0 0 0 0
10 2 0.01924854816442943 12.9331 1.43701 1.43687 0 0 0
26 1 0.03352775700635889 7.18508 4.31105 1.43687 0 0 0
27 2 0.02828504236240195 8.62209 2.87403 0 0 0 0
28 2 0.0116209645033004 10.0591 4.31105 1.43687 0 0 0
29 2 0.03040487765652723 11.4961 2.87403 0 0 0 0
30 2 0.01312357535903183 12.9331 4.31105 1.43687 0 0 0
47 2 0.02749495703087979 8.62209 5.74806 0 0 0 0
49 1 0.04949063265583704 11.4961 5.74806 0 0 0 0
206 2 0.01700638260719167 7.18508 1.43701 4.31104 0 0 0
207 2 0.01675373191901149 8.62209 0 2.87417 0 0 0
208 2 0.01724365271937758 10.0591 1.43701 4.31104 0 0 0
209 2 0.01610152262484542 11.4961 0 2.87417 0 0 0
210 2 0.01689140385779266 12.9331 1.43701 4.31104 0 0 0
226 2 0.01604015481780589 7.18508 4.31105 4.31104 0 0 0
227 1 0.03822447383969252 8.62209 2.87403 2.87417 0 0 0
228 2 0.01140942370063977 10.0591 4.31105 4.31104 0 0 0
229 2 0.01801432453067672 11.4961 2.87403 2.87417 0 0 0
230 1 0.03241900464800897 12.9331 4.31105 4.31104 0 0 0
247 2 0.01830308148667398 8.62209 5.74806 2.87417 0 0 0
249 2 0.01876471791298932 11.4961 5.74806 2.87417 0 0 0
427 2 0.01729193256695271 8.402632373969167 2.9659753928269486 5.447516730608361 0 0 0
429 1 0.03665817734027708 11.471738514076614 2.91746482857153 5.763592464688653 0 0 0
447 2 0.02047568075667412 8.41115093504087 5.694457359680942 5.611136855658557 0 0 0
449 1 0.03469950341951485 11.457335477435837 5.588195150642853 5.736777310519667 0 0 0
409 2 0.01732207289680223 11.584662230386535 0.15039869971126094 5.612669265110159 0 0 0
407 2 0.02264581876257672 8.539988540603025 28.66717277809913 5.734218955070891 0 -1 0
431 2 0.01479810433488871 14.246750587544176 2.803615024368211 5.787477055575734 0 0 0
451 1 0.03304951829260706 14.270232165561048 5.5294279569661775 5.6741895616133435 0 0 0
11 2 0.02907371066665896 14.3702 0 0 0 0 0
12 2 0.01575434614610679 15.8072 1.43701 1.43687 0 0 0
13 2 0.02698541626402584 17.2442 0 0 0 0 0
14 2 0.01257012966839897 18.6812 1.43701 1.43687 0 0 0
15 1 0.05033032251011238 20.1182 0 0 0 0 0
16 2 0.01087706960118274 21.5552 1.43701 1.43687 0 0 0
31 2 0.02901352552763614 14.3702 2.87403 0 0 0 0
32 1 0.03485083483999309 15.8072 4.31105 1.43687 0 0 0
33 2 0.02688959977534681 17.2442 2.87403 0 0 0 0
34 1 0.03703985587838923 18.6812 4.31105 1.43687 0 0 0
35 2 0.0281088610855234 20.1182 2.87403 0 0 0 0
36 2 0.01489244351905918 21.5552 4.31105 1.43687 0 0 0
51 2 0.02572185574325726 14.3702 5.74806 0 0 0 0
53 2 0.0223792531927736 17.2442 5.74806 0 0 0 0
55 2 0.02825579213552364 20.1182 5.74806 0 0 0 0
211 2 0.0159538371861607 14.3702 0 2.87417 0 0 0
212 2 0.02151921114093305 15.8072 1.43701 4.31104 0 0 0
213 2 0.01809339722383922 17.2442 0 2.87417 0 0 0
214 2 0.01867920174125427 18.6812 1.43701 4.31104 0 0 0
215 1 0.03765176985187561 20.1182 0 2.87417 0 0 0
216 1 0.03459052674603226 21.5552 1.43701 4.31104 0 0 0
231 2 0.01767918683789408 14.3702 2.87403 2.87417 0 0 0
232 2 0.01532524731200202 15.8072 4.31105 4.31104 0 0 0
233 2 0.01699966454355636 17.2442 2.87403 2.87417 0 0 0
234 2 0.01792637608728075 18.6812 4.31105 4.31104 0 0 0
235 2 0.0138460272846831 20.1182 2.87403 2.87417 0 0 0
236 1 0.03786371269620483 21.5552 4.31105 4.31104 0 0 0
251 2 0.01417954203439419 14.3702 5.74806 2.87417 0 0 0
253 2 0.01485594784964489 17.2442 5.74806 2.87417 0 0 0
255 2 0.01291799444356951 20.1182 5.74806 2.87417 0 0 0
433 2 0.01780127153369154 17.23790991082877 2.8512742713863015 5.713657712516462 0 0 0
435 2 0.01439483023537085 19.968970661177703 2.820230368107876 5.763848231334489 0 0 0
453 2 0.01512977814998685 17.349917061653713 5.607478944076348 5.519489992731981 0 0 0
455 1 0.03145784093643456 20.130017171098725 5.770148798766257 5.638929841752256 0 0 0
411 2 0.01926047215758876 14.326599896157942 28.659879702045817 5.682124518926216 0 -1 0
441 2 0.01425584452026871 0.014928330215359907 5.762530661137903 5.581823169621803 0 0 0
401 2 0.01181440500872091 0.2549427697243835 0.015311120075679696 5.850706479442457 0 0 0
421 1 0.03511214616595121 28.738444734698195 2.7929652795528455 5.744412982509126 -1 0 0
17 2 0.02650645692745802 22.9922 0 0 0 0 0
18 2 0.009726884009728508 24.4293 1.43701 1.43687 0 0 0
19 2 0.02628599153831501 25.8663 0 0 0 0 0
20 2 0.01462077471677863 27.3033 1.43701 1.43687 0 0 0
37 2 0.03107137021195553 22.9922 2.87403 0 0 0 0
38 2 0.008932155128803257 24.4293 4.31105 1.43687 0 0 0
39 1 0.04772636639452359 25.8663 2.87403 0 0 0 0
40 2 0.008597455903453573 27.3033 4.31105 1.43687 0 0 0
57 1 0.04861789122808197 22.9922 5.74806 0 0 0 0
59 1 0.04786842068865498 25.8663 5.74806 0 0 0 0
217 1 0.03458132465956715 22.9922 0 2.87417 0 0 0
218 1 0.03724774957253663 24.4293 1.43701 4.31104 0 0 0
219 2 0.01145917956878629 25.8663 0 2.87417 0 0 0
220 2 0.01298897720955017 27.3033 1.43701 4.31104 0 0 0
237 2 0.01432766168081357 22.9922 2.87403 2.87417 0 0 0
238 2 0.01411883275957967 24.4293 4.31105 4.31104 0 0 0
239 1 0.03802376811763501 25.8663 2.87403 2.87417 0 0 0
240 1 0.03362289537309727 27.3033 4.31105 4.31104 0 0 0
257 2 0.01756085781197293 22.9922 5.74806 2.87417 0 0 0
259 2 0.01634315257063273 25.8663 5.74806 2.87417 0 0 0
437 2 0.01303967100500238 22.818485453904966 2.834092103830038 5.849867308610011 0 0 0
439 2 0.006342216643927243 25.94192043970295 2.762917539668927 5.834513036658486 0 0 0
457 2 0.01058076087318965 22.991519937235736 5.609609408398458 5.568367238378773 0 0 0
459 1 0.03075679865714084 25.85462852432021 5.459080350951022 5.671906677005166 0 0 0
419 2 0.01387252647441166 25.648019231027053 0.05201770238552012 5.548416640738209 0 0 0
42 2 0.01459513555508399 1.43701 7.18508 1.43687 0 0 0
44 2 0.01471393528840845 4.31105 7.18508 1.43687 0 0 0
61 2 0.02926765368611681 0 8.62209 0 0 0 0
63 2 0.03018145986770619 2.87403 8.62209 0 0 0 0
65 2 0.03058817021249019 5.74806 8.62209 0 0 0 0
242 2 0.01802092005495778 1.43701 7.18508 4.31104 0 0 0
244 1 0.03611675293069286 4.31105 7.18508 4.31104 0 0 0
261 2 0.01727325662507109 0 8.62209 2.87417 0 0 0
263 2 0.02015675973465801 2.87403 8.62209 2.87417 0 0 0
265 2 0.01734784178132072 5.74806 8.62209 2.87417 0 0 0
463 2 0.01351322617627383 2.893573035109855 8.639957757590155 5.6382592718811075 0 0 0
465 1 0.03578684823188399 5.852937282885111 8.619844019769094 5.812613356985277 0 0 0
62 2 0.01637591069716597 1.43701 10.0591 1.43687 0 0 0
64 2 0.01248809984846379 4.31105 10.0591 1.43687 0 0 0
81 2 0.02969221921931841 0 11.4961 0 0 0 0
82 2 0.01627756159650021 1.43701 12.9331 1.43687 0 0 0
83 2 0.03097497240120696 2.87403 11.4961 0 0 0 0
84 2 0.006490359736547456 4.31105 12.9331 1.43687 0 0 0
85 1 0.04749407515553662 5.74806 11.4961 0 0 0 0
262 2 0.021351261023826 1.43701 10.0591 4.31104 0 0 0
264 2 0.015402405746008 4.31105 10.0591 4.31104 0 0 0
281 2 0.01611520115794583 0 11.4961 2.87417 0 0 0
282 2 0.01794084881492067 1.43701 12.9331 4.31104 0 0 0
283 2 0.01928171085573842 2.87403 11.4961 2.87417 0 0 0
284 2 0.01712746605692517 4.31105 12.9331 4.31104 0 0 0
285 1 0.04107310459680536 5.74806 11.4961 2.87417 0 0 0
483 2 0.01897090919973057 2.7719714725554616 11.450107904202328 5.724352670768409 0 0 0
485 2 0.01293202777571999 5.839720599124622 11.371843184327405 5.565841725032501 0 0 0
505 2 0.01430297311187265 5.765838571569928 14.432151156491662 5.610049871563852 0 0 0
501 2 0.01425491786553712 28.553627703449514 14.48451753754 5.70987690146166 -1 0 0
46 2 0.01700099619655324 7.18508 7.18508 1.43687 0 0 0
48 2 0.01435821593814605 10.0591 7.18508 1.43687 0 0 0
50 2 0.01576142626997751 12.9331 7.18508 1.43687 0 0 0
67 2 0.03144581528018475 8.62209 8.62209 0 0 0 0
69 2 0.02959708739909986 11.4961 8.62209 0 0 0 0
246 2 0.01674579970184319 7.18508 7.18508 4.31104 0 0 0
248 2 0.01901416767813661 10.0591 7.18508 4.31104 0 0 0
250 2 0.01480481177127333 12.9331 7.18508 4.31104 0 0 0
267 2 0.02165235702559795 8.62209 8.62209 2.87417 0 0 0
269 2 0.01915666079830509 11.4961 8.62209 2.87417 0 0 0
467 2 0.0169984235606474 8.643989310828738 8.440283355270527 5.533544650933817 0 0 0
469 2 0.01603724732766017 11.614909876429726 8.577787306756205 5.556780041942573 0 0 0
66 2 0.0119616297345482 7.18508 10.0591 1.43687 0 0 0
68 2 0.01733588135401418 10.0591 10.0591 1.43687 0 0 0
70 2 0.01465070556979534 12.9331 10.0591 1.43687 0 0 0
86 2 0.006885005356164924 7.18508 12.9331 1.43687 0 0 0
87 2 0.02878912112900978 8.62209 11.4961 0 0 0 0
88 2 0.01522870224648597 10.0591 12.9331 1.43687 0 0 0
89 2 0.03238792893571483 11.4961 11.4961 0 0 0 0
90 2 0.01130802992216878 12.9331 12.9331 1.43687 0 0 0
266 2 0.01403638197331857 7.18508 10.0591 4.31104 0 0 0
268 2 0.02008861338875604 10.0591 10.0591 4.31104 0 0 0
270 1 0.03675463930339049 12.9331 10.0591 4.31104 0 0 0
286 2 0.01780266236320707 7.18508 12.9331 4.31104 0 0 0
287 2 0.02144529883678348 8.62209 11.4961 2.87417 0 0 0
288 2 0.0214140952709665 10.0591 12.9331 4.31104 0 0 0
289 2 0.0148749134263195 11.4961 11.4961 2.87417 0 0 0
290 1 0.0362180076347314 12.9331 12.9331 4.31104 0 0 0
487 2 0.01533195172562902 8.475476765819183 11.479964858330286 5.786636354284057 0 0 0
489 2 0.01551860427167961 11.59274111200355 11.458878098186046 5.808106402197289 0 0 0
471 2 0.02078177295979753 14.525990380136069 8.506010111229195 5.6422991441633155 0 0 0
491 2 0.01141073843174233 14.414232926360455 11.410551979593015 5.601244869595732 0 0 0
509 2 0.01393659178199448 11.401665722749359 14.239860910468531 5.845380178607886 0 0 0
52 1 0.03308482785489615 15.8072 7.18508 1.43687 0 0 0
54 2 0.01494114247674065 18.6812 7.18508 1.43687 0 0 0
56 2 0.01220706687365602 21.5552 7.18508 1.43687 0 0 0
71 2 0.02627827394208333 14.3702 8.62209 0 0 0 0
73 1 0.04532592516242621 17.2442 8.62209 0 0 0 0
75 2 0.03133169954261784 20.1182 8.62209 0 0 0 0
252 2 0.02126950432566337 15.8072 7.18508 4.31104 0 0 0
254 2 0.01711945403838285 18.6812 7.18508 4.31104 0 0 0
256 1 0.03472399657771857 21.5552 7.18508 4.31104 0 0 0
271 2 0.01450711020368923 14.3702 8.62209 2.87417 0 0 0
273 2 0.01583793303395686 17.2442 8.62209 2.87417 0 0 0
275 2 0.01923548903812777 20.1182 8.62209 2.87417 0 0 0
473 2 0.01781055443481509 17.17056023251504 8.741932059258628 5.695459622246514 0 0 0
475 2 0.01471667417680542 20.071426423179368 8.520010768373682 5.478249275753412 0 0 0
72 1 0.02835551404481059 15.8072 10.0591 1.43687 0 0 0
74 2 0.0126445212892807 18.6812 10.0591 1.43687 0 0 0
76 2 0.01379249725236274 21.5552 10.0591 1.43687 0 0 0
91 2 0.02784307761878281 14.3702 11.4961 0 0 0 0
92 1 0.02688436541464322 15.8072 12.9331 1.43687 0 0 0
93 2 0.02430966571102948 17.2442 11.4961 0 0 0 0
94 2 0.009324435314290426 18.6812 12.9331 1.43687 0 0 0
95 2 0.03126495941843211 20.1182 11.4961 0 0 0 0
96 2 0.01498784485178718 21.5552 12.9331 1.43687 0 0 0
272 2 0.01219987284286196 15.8072 10.0591 4.31104 0 0 0
274 2 0.01637302438291294 18.6812 10.0591 4.31104 0 0 0
276 2 0.01723220623403401 21.5552 10.0591 4.31104 0 0 0
291 1 0.03002476942844752 14.3702 11.4961 2.87417 0 0 0
292 2 0.009473841548715216 15.8072 12.9331 4.31104 0 0 0
293 1 0.03585225349917116 17.2442 11.4961 2.87417 0 0 0
294 2 0.01661691447852783 18.6812 12.9331 4.31104 0 0 0
295 2 0.02147289253415675 20.1182 11.4961 2.87417 0 0 0
296 2 0.01819237071169789 21.5552 12.9331 4.31104 0 0 0
493 1 0.03754262785498901 17.20179107535019 11.474863931837323 5.699816810565877 0 0 0
495 2 0.01995994363514157 20.158739921790897 11.3949493612706 5.60859244066605 0 0 0
513 2 0.01309555282212152 17.264572553966094 14.441192794715747 5.6448096160293995 0 0 0
515 2 0.0198085129360814 20.062851967640906 14.293513086800868 5.78227189880024 0 0 0
481 2 0.01759430446823125 28.73530266695514 11.696328524406123 5.826837266989981 -1 0 0
461 2 0.0163264670372517 0.07574925621515524 8.638833975445406 5.6399049180636345 0 0 0
58 2 0.01129317440385375 24.4293 7.18508 1.43687 0 0 0
60 2 0.01541017376512663 27.3033 7.18508 1.43687 0 0 0
77 2 0.02704860859517239 22.9922 8.62209 0 0 0 0
79 2 0.02611436223219518 25.8663 8.62209 0 0 0 0
258 2 0.01299693849149237 24.4293 7.18508 4.31104 0 0 0
260 1 0.03606191206937513 27.3033 7.18508 4.31104 0 0 0
277 1 0.03736221795798392 22.9922 8.62209 2.87417 0 0 0
279 2 0.01187518337915516 25.8663 8.62209 2.87417 0 0 0
477 2 0.0121087195213945 23.065016500879256 8.543979623042818 5.727648035607196 0 0 0
479 1 0.03734780416381951 25.749240829371814 8.508191833818243 5.6808717101195025 0 0 0
78 1 0.03134468152728732 24.4293 10.0591 1.43687 0 0 0
80 1 0.03392279827855955 27.3033 10.0591 1.43687 0 0 0
97 2 0.02988667423557938 22.9922 11.4961 0 0 0 0
98 2 0.01306667206129656 24.4293 12.9331 1.43687 0 0 0
99 2 0.02651667453701598 25.8663 11.4961 0 0 0 0
100 2 0.009646396164486176 27.3033 12.9331 1.43687 0 0 0
278 2 0.01438657027626053 24.4293 10.0591 4.31104 0 0 0
280 2 0.01477957089675147 27.3033 10.0591 4.31104 0 0 0
297 2 0.01762058098486535 22.9922 11.4961 2.87417 0 0 0
298 2 0.0118565406849012 24.4293 12.9331 4.31104 0 0 0
299 1 0.03291007272743227 25.8663 11.4961 2.87417 0 0 0
300 1 0.03655080026385703 27.3033 12.9331 4.31104 0 0 0
497 2 0.0218893970899774 23.140292719991884 11.509105607182319 5.699459146338003 0 0 0
499 2 0.01835896587324608 25.719424186300845 11.532258166364397 5.656491179434928 0 0 0
517 1 0.0379910941914965 23.07886549598831 14.377219489401835 5.7275213154613285 0 0 0
519 2 0.01391417939459839 25.66301222177062 14.296514991192694 5.746816837585339 0 0 0
503 2 0.0157116535583834 2.858372420816079 14.5931047418662 5.412749635357262 0 0 0
101 2 0.02999670473429625 0 14.3702 0 0 0 0
102 2 0.01419920775109369 1.43701 15.8072 1.43687 0 0 0
103 2 0.0291292803532416 2.87403 14.3702 0 0 0 0
104 2 0.01300790743337278 4.31105 15.8072 1.43687 0 0 0
105 1 0.04808434662506826 5.74806 14.3702 0 0 0 0
121 2 0.02817191958586392 0 17.2442 0 0 0 0
122 2 0.01208726845019919 1.43701 18.6812 1.43687 0 0 0
123 2 0.03163381999553259 2.87403 17.2442 0 0 0 0
124 2 0.01432927766601081 4.31105 18.6812 1.43687 0 0 0
125 2 0.0278469651933571 5.74806 17.2442 0 0 0 0
301 2 0.0150235570243358 0 14.3702 2.87417 0 0 0
302 2 0.01492792716379211 1.43701 15.8072 4.31104 0 0 0
303 1 0.04081075514164072 2.87403 14.3702 2.87417 0 0 0
304 2 0.01481908908668936 4.31105 15.8072 4.31104 0 0 0
305 2 0.01940712834659874 5.74806 14.3702 2.87417 0 0 0
321 2 0.01808780734815396 0 17.2442 2.87417 0 0 0
322 1 0.03314506904225581 1.43701 18.6812 4.31104 0 0 0
323 2 0.01837029022921952 2.87403 17.2442 2.87417 0 0 0
324 2 0.01707608503618444 4.31105 18.6812 4.31104 0 0 0
325 2 0.02074126592487321 5.74806 17.2442 2.87417 0 0 0
523 1 0.03132527828157704 2.796751979773304 17.347868267425287 5.706976440354506 0 0 0
525 2 0.01273063307758198 5.569554110472156 17.188122195007416 5.66612221855138 0 0 0
141 1 0.04548077096219194 0 20.1182 0 0 0 0
142 1 0.02765785771906591 1.43701 21.5552 1.43687 0 0 0
143 1 0.04247385808699113 2.87403 20.1182 0 0 0 0
144 1 0.03020214303904934 4.31105 21.5552 1.43687 0 0 0
145 2 0.02603384141925982 5.74806 20.1182 0 0 0 0
341 2 0.01959398192370697 0 20.1182 2.87417 0 0 0
342 2 0.01604171304849942 1.43701 21.5552 4.31104 0 0 0
343 2 0.01254087082045205 2.87403 20.1182 2.87417 0 0 0
344 2 0.01804553706813995 4.31105 21.5552 4.31104 0 0 0
345 2 0.01831147477557188 5.74806 20.1182 2.87417 0 0 0
543 1 0.03424199989539504 2.998859222546758 20.068846358791266 5.777760738341483 0 0 0
545 2 0.01671536063165006 5.7857187198568445 20.08988154872803 5.738746743594981 0 0 0
521 1 0.02960394156489167 0.028611164683830737 17.303888542613397 5.801306090604624 0 0 0
541 2 0.0131054348050431 28.720361594504823 20.32084016204826 5.700395994889045 -1 0 0
106 2 0.01086520023992248 7.18508 15.8072 1.43687 0 0 0
107 1 0.04818212049266942 8.62209 14.3702 0 0 0 0
108 2 0.01526995915675084 10.0591 15.8072 1.43687 0 0 0
109 2 0.03048675293158665 11.4961 14.3702 0 0 0 0
110 2 0.01537951137663205 12.9331 15.8072 1.43687 0 0 0
126 1 0.03628967837819513 7.18508 18.6812 1.43687 0 0 0
127 2 0.02743462964623893 8.62209 17.2442 0 0 0 0
128 2 0.01652983517021332 10.0591 18.6812 1.43687 0 0 0
129 2 0.0291913224965155 11.4961 17.2442 0 0 0 0
130 1 0.03499347271709884 12.9331 18.6812 1.43687 0 0 0
306 2 0.02162131894404018 7.18508 15.8072 4.31104 0 0 0
307 2 0.02047097437328702 8.62209 14.3702 2.87417 0 0 0
308 2 0.02282019798650649 10.0591 15.8072 4.31104 0 0 0
309 2 0.01807463254724721 11.4961 14.3702 2.87417 0 0 0
310 2 0.01592226257033866 12.9331 15.8072 4.31104 0 0 0
326 2 0.01578964081905351 7.18508 18.6812 4.31104 0 0 0
327 2 0.01894549940040493 8.62209 17.2442 2.87417 0 0 0
328 2 0.01809748352502 10.0591 18.6812 4.31104 0 0 0
329 2 0.01570166882891877 11.4961 17.2442 2.87417 0 0 0
330 1 0.03877976213938126 12.9331 18.6812 4.31104 0 0 0
507 2 0.01657922916832406 8.691994644640081 14.288288906763793 5.794095263299837 0 0 0
527 2 0.01313894370346128 8.740987532223524 17.273816844759562 5.762993067830326 0 0 0
529 2 0.0172815020890821 11.640475720652711 17.13241933375736 5.430950324739993 0 0 0
146 2 0.01277237935610261 7.18508 21.5552 1.43687 0 0 0
147 2 0.02822022573953131 8.62209 20.1182 0 0 0 0
148 2 0.01361095694086074 10.0591 21.5552 1.43687 0 0 0
149 2 0.02523657108571063 11.4961 20.1182 0 0 0 0
150 1 0.03388449008101151 12.9331 21.5552 1.43687 0 0 0
346 2 0.01920224354434193 7.18508 21.5552 4.31104 0 0 0
347 2 0.01794996122074215 8.62209 20.1182 2.87417 0 0 0
348 2 0.01948763743572111 10.0591 21.5552 4.31104 0 0 0
349 2 0.01454530205555327 11.4961 20.1182 2.87417 0 0 0
350 2 0.01921347969111765 12.9331 21.5552 4.31104 0 0 0
547 1 0.03483960673940666 8.673402788763912 20.01819569075275 5.642357583810321 0 0 0
549 2 0.0129031130101035 11.506357878572386 20.03491340271885 5.690435701680393 0 0 0
511 2 0.01155983976061015 14.337466217040554 14.398278926808043 5.727615678782446 0 0 0
531 2 0.009574330605944287 14.40005454909811 17.330844826874962 5.714768305811542 0 0 0
551 2 0.01577489456387317 14.383246679023335 20.0033292631389 5.842431806168365 0 0 0
111 2 0.02758599759014353 14.3702 14.3702 0 0 0 0
112 2 0.01248815575419999 15.8072 15.8072 1.43687 0 0 0
113 1 0.04680902407311126 17.2442 14.3702 0 0 0 0
114 2 0.01307089177766356 18.6812 15.8072 1.43687 0 0 0
115 1 0.04766827872900265 20.1182 14.3702 0 0 0 0
116 2 0.0135604432807415 21.5552 15.8072 1.43687 0 0 0
131 2 0.03016757464602796 14.3702 17.2442 0 0 0 0
132 2 0.0137271327869988 15.8072 18.6812 1.43687 0 0 0
133 2 0.02944823154572879 17.2442 17.2442 0 0 0 0
134 2 0.0117197933129508 18.6812 18.6812 1.43687 0 0 0
135 2 0.02856652325018138 20.1182 17.2442 0 0 0 0
136 1 0.03084341671527204 21.5552 18.6812 1.43687 0 0 0
311 1 0.03677120478961034 14.3702 14.3702 2.87417 0 0 0
312 2 0.01906554547042331 15.8072 15.8072 4.31104 0 0 0
313 2 0.01758544665173354 17.2442 14.3702 2.87417 0 0 0
314 2 0.02133778710100208 18.6812 15.8072 4.31104 0 0 0
315 2 0.02096267661319179 20.1182 14.3702 2.87417 0 0 0
316 2 0.01815520669253977 21.5552 15.8072 4.31104 0 0 0
331 2 0.01314322243616444 14.3702 17.2442 2.87417 0 0 0
332 1 0.03985436875955174 15.8072 18.6812 4.31104 0 0 0
333 2 0.02081924485990679 17.2442 17.2442 2.87417 0 0 0
334 2 0.0160818669508572 18.6812 18.6812 4.31104 0 0 0
335 2 0.01839277516049722 20.1182 17.2442 2.87417 0 0 0
336 2 0.01432995015792263 21.5552 18.6812 4.31104 0 0 0
533 2 0.01413378701325221 17.373628483549375 17.15454652821801 5.8327532987225394 0 0 0
535 2 0.01951836163853981 20.043514348081704 17.21434857537792 5.590150766171442 0 0 0
151 2 0.02512889873477205 14.3702 20.1182 0 0 0 0
152 2 0.01580995190984121 15.8072 21.5552 1.43687 0 0 0
153 1 0.05029974699239659 17.2442 20.1182 0 0 0 0
154 2 0.01150562331098667 18.6812 21.5552 1.43687 0 0 0
155 2 0.02720511234279376 20.1182 20.1182 0 0 0 0
156 2 0.01246395803638169 21.5552 21.5552 1.43687 0 0 0
351 2 0.01134001704373891 14.3702 20.1182 2.87417 0 0 0
352 2 0.02050585183569421 15.8072 21.5552 4.31104 0 0 0
353 2 0.01691067138776695 17.2442 20.1182 2.87417 0 0 0
354 2 0.01736133208454304 18.6812 21.5552 4.31104 0 0 0
355 1 0.03781809137181524 20.1182 20.1182 2.87417 0 0 0
356 2 0.01118547956547341 21.5552 21.5552 4.31104 0 0 0
553 2 0.01834216074893701 17.202024518188868 20.241570999321286 5.767979607851762 0 0 0
555 2 0.01933799825858835 20.12257250386906 20.083042433421763 5.679270333372103 0 0 0
117 2 0.030522458479567 22.9922 14.3702 0 0 0 0
118 2 0.0144323176830846 24.4293 15.8072 1.43687 0 0 0
119 2 0.02876970254437696 25.8663 14.3702 0 0 0 0
120 1 0.03422503339404243 27.3033 15.8072 1.43687 0 0 0
137 2 0.03018718588542917 22.9922 17.2442 0 0 0 0
138 2 0.01178296119590196 24.4293 18.6812 1.43687 0 0 0
139 2 0.02805261121769426 25.8663 17.2442 0 0 0 0
140 2 0.01232974593318928 27.3033 18.6812 1.43687 0 0 0
317 2 0.02011882734500092 22.9922 14.3702 2.87417 0 0 0
318 2 0.01608798998059256 24.4293 15.8072 4.31104 0 0 0
319 1 0.03499302058707054 25.8663 14.3702 2.87417 0 0 0
320 2 0.01484812516140243 27.3033 15.8072 4.31104 0 0 0
337 2 0.01885496062298207 22.9922 17.2442 2.87417 0 0 0
338 2 0.01960124941572133 24.4293 18.6812 4.31104 0 0 0
339 2 0.01916380741970502 25.8663 17.2442 2.87417 0 0 0
340 2 0.01735720727038614 27.3033 18.6812 4.31104 0 0 0
537 2 0.01960392020199642 23.141424698893246 17.108575165049285 5.786359685623143 0 0 0
539 2 0.01456136643829788 25.86351946929809 17.420163247859524 5.517043160967121 0 0 0
157 2 0.02768510522151161 22.9922 20.1182 0 0 0 0
158 2 0.007825235891245945 24.4293 21.5552 1.43687 0 0 0
159 1 0.04809404278129878 25.8663 20.1182 0 0 0 0
160 2 0.007089125422633097 27.3033 21.5552 1.43687 0 0 0
357 1 0.03798582962607061 22.9922 20.1182 2.87417 0 0 0
358 2 0.0130749046309017 24.4293 21.5552 4.31104 0 0 0
359 2 0.01984950432776313 25.8663 20.1182 2.87417 0 0 0
360 2 0.01923866782305018 27.3033 21.5552 4.31104 0 0 0
557 2 0.01833400586949518 23.05115856375548 20.12197899641327 5.7491090467662715 0 0 0
559 2 0.01924417032687321 25.846638000724145 20.274072396364648 5.7651969398643885 0 0 0
403 1 0.02942717582239447 3.0059987868771163 0.01596023613130626 5.683927602678648 0 0 0
405 2 0.01365022730283526 5.602783813170275 0.0226246753488536 5.676142000588495 0 0 0
161 2 0.02789019593831205 0 22.9922 0 0 0 0
162 2 0.008422638760871577 1.43701 24.4293 1.43687 0 0 0
163 1 0.04347998276158567 2.87403 22.9922 0 0 0 0
164 2 0.01003594179517952 4.31105 24.4293 1.43687 0 0 0
165 2 0.02538025614522697 5.74806 22.9922 0 0 0 0
181 2 0.03034139977318354 0 25.8663 0 0 0 0
182 2 0.0095052612255596 1.43701 27.3033 1.43687 0 0 0
183 2 0.03141664748813167 2.87403 25.8663 0 0 0 0
184 2 0.01101724629918448 4.31105 27.3033 1.43687 0 0 0
185 2 0.03137828900607058 5.74806 25.8663 0 0 0 0
361 2 0.01426932786140465 0 22.9922 2.87417 0 0 0
362 1 0.03241943480286939 1.43701 24.4293 4.31104 0 0 0
363 1 0.03310810932609098 2.87403 22.9922 2.87417 0 0 0
364 2 0.01677732320511372 4.31105 24.4293 4.31104 0 0 0
365 2 0.01526759005756856 5.74806 22.9922 2.87417 0 0 0
381 1 0.02968910340811246 0 25.8663 2.87417 0 0 0
382 1 0.0301118154905138 1.43701 27.3033 4.31104 0 0 0
383 1 0.03553637680490579 2.87403 25.8663 2.87417 0 0 0
384 2 0.01128026666484205 4.31105 27.3033 4.31104 0 0 0
385 2 0.01593304971905961 5.74806 25.8663 2.87417 0 0 0
563 2 0.01681401030673774 2.735658531035724 23.011690188233754 5.826301655400939 0 0 0
565 2 0.02091493238808053 5.692199632828496 22.965843215901202 5.886037206691627 0 0 0
583 2 0.01360075714935721 2.875173138381082 25.789013025167336 5.6846577790472255 0 0 0
585 2 0.01752100632462696 5.774709536092107 25.896571686258707 5.7989384786121825 0 0 0
561 2 0.01673841699199779 0.014202259397381263 23.190592740466165 5.740845008555349 0 0 0
166 1 0.03203564330178381 7.18508 24.4293 1.43687 0 0 0
167 1 0.04688722441064366 8.62209 22.9922 0 0 0 0
168 2 0.007068911995554705 10.0591 24.4293 1.43687 0 0 0
169 1 0.0463976811196679 11.4961 22.9922 0 0 0 0
170 2 0.01221756462721978 12.9331 24.4293 1.43687 0 0 0
186 2 0.011023076807402 7.18508 27.3033 1.43687 0 0 0
187 2 0.02499804290951708 8.62209 25.8663 0 0 0 0
188 1 0.03321394135808762 10.0591 27.3033 1.43687 0 0 0
189 2 0.02842947736653625 11.4961 25.8663 0 0 0 0
190 2 0.01231455581860225 12.9331 27.3033 1.43687 0 0 0
366 1 0.03497419770529767 7.18508 24.4293 4.31104 0 0 0
367 2 0.01665186459028827 8.62209 22.9922 2.87417 0 0 0
368 2 0.01404028319806221 10.0591 24.4293 4.31104 0 0 0
369 2 0.01607460099938441 11.4961 22.9922 2.87417 0 0 0
370 1 0.0369541076662097 12.9331 24.4293 4.31104 0 0 0
386 2 0.01370871747361063 7.18508 27.3033 4.31104 0 0 0
387 1 0.03270773092802489 8.62209 25.8663 2.87417 0 0 0
388 2 0.01292153476165911 10.0591 27.3033 4.31104 0 0 0
389 1 0.03371181452896538 11.4961 25.8663 2.87417 0 0 0
390 1 0.0373965543738709 12.9331 27.3033 4.31104 0 0 0
567 2 0.01460880609962296 8.718156692771093 22.808563154994935 5.691752886706499 0 0 0
569 2 0.01674103021148032 11.406439949899994 22.941846666759325 5.648953629639835 0 0 0
587 1 0.03812721448939291 8.577153383603228 25.882986597409765 5.844776754450288 0 0 0
589 2 0.01356982273877752 11.406175874218041 25.82710430359519 5.772229681883958 0 0 0
415 2 0.01538178242605227 20.172746233830836 28.71746120732778 5.7674644619727715 0 -1 0
591 2 0.01470972924210175 14.539819044776056 25.80004259819024 5.714117771468005 0 0 0
413 2 0.02057614742247071 17.085320579679845 28.710451654184876 5.537247342145462 0 -1 0
171 2 0.02864682524912779 14.3702 22.9922 0 0 0 0
172 2 0.01388411704813673 15.8072 24.4293 1.43687 0 0 0
173 2 0.02610126144565501 17.2442 22.9922 0 0 0 0
174 1 0.03441856103078926 18.6812 24.4293 1.43687 0 0 0
175 2 0.03013167477410503 20.1182 22.9922 0 0 0 0
176 2 0.01527980109450267 21.5552 24.4293 1.43687 0 0 0
191 2 0.02894427912431421 14.3702 25.8663 0 0 0 0
192 1 0.03502135394463214 15.8072 27.3033 1.43687 0 0 0
193 1 0.0445559117424646 17.2442 25.8663 0 0 0 0
194 2 0.008209081731084443 18.6812 27.3033 1.43687 0 0 0
195 2 0.0256624044325508 20.1182 25.8663 0 0 0 0
196 2 0.007196022822505276 21.5552 27.3033 1.43687 0 0 0
371 2 0.01713759265591253 14.3702 22.9922 2.87417 0 0 0
372 2 0.02045643564223916 15.8072 24.4293 4.31104 0 0 0
373 2 0.02008590933576178 17.2442 22.9922 2.87417 0 0 0
374 2 0.01505888159506798 18.6812 24.4293 4.31104 0 0 0
375 2 0.01875325247005459 20.1182 22.9922 2.87417 0 0 0
376 2 0.009983222332913176 21.5552 24.4293 4.31104 0 0 0
391 2 0.01334194941186122 14.3702 25.8663 2.87417 0 0 0
392 2 0.0186489458620389 15.8072 27.3033 4.31104 0 0 0
393 2 0.01611045425381597 17.2442 25.8663 2.87417 0 0 0
394 2 0.01768673420275942 18.6812 27.3033 4.31104 0 0 0
395 2 0.02025618008307604 20.1182 25.8663 2.87417 0 0 0
396 2 0.01006253651725363 21.5552 27.3033 4.31104 0 0 0
571 2 0.01853857520651918 14.477001776451647 23.073615770171262 5.636925868901017 0 0 0
573 2 0.02014195497227921 17.409240451129552 23.092560761331555 5.785059279283934 0 0 0
575 1 0.03637890056633498 20.195485831417546 23.03411255748994 5.820776378757357 0 0 0
593 2 0.0176453545019777 17.27972307206754 25.666542844436545 5.764820366444137 0 0 0
595 1 0.03415858057885715 20.115896071709795 25.908583892402525 5.611523099907001 0 0 0
417 2 0.01336491957281581 22.988606976272028 28.66822913428388 5.757660057997014 0 -1 0
581 2 0.01123626438208603 28.71048166520162 25.88404080175554 5.821527196446663 -1 0 0
177 2 0.03008415848917539 22.9922 22.9922 0 0 0 0
178 2 0.01007449320832593 24.4293 24.4293 1.43687 0 0 0
179 1 0.04846609254426215 25.8663 22.9922 0 0 0 0
180 2 0.0111646187022142 27.3033 24.4293 1.43687 0 0 0
197 1 0.04794218938600286 22.9922 25.8663 0 0 0 0
198 1 0.03319506307494414 24.4293 27.3033 1.43687 0 0 0
199 2 0.02469636887801077 25.8663 25.8663 0 0 0 0
200 1 0.03452085330335621 27.3033 27.3033 1.43687 0 0 0
377 2 0.02111855987996401 22.9922 22.9922 2.87417 0 0 0
378 2 0.01217774866962977 24.4293 24.4293 4.31104 0 0 0
379 1 0.04026559631062033 25.8663 22.9922 2.87417 0 0 0
380 1 0.03245740877055844 27.3033 24.4293 4.31104 0 0 0
397 2 0.02012753205567479 22.9922 25.8663 2.87417 0 0 0
398 2 0.01251230683015504 24.4293 27.3033 4.31104 0 0 0
399 2 0.01066712447728409 25.8663 25.8663 2.87417 0 0 0
400 1 0.03583808959746932 27.3033 27.3033 4.31104 0 0 0