# LAMMPS data file written by Ovito Basic 3.0.0-dev791
243 atoms
6 atom types
0.0 11.8019123077 xlo xhi
0.0 10.2207536697 ylo yhi
0.0 48.185344696 zlo zhi

Atoms  # charge

1 1 0.0 1.475239038 2.555188656 31.327245712
2 1 0.0 1.475239038 7.665565491 31.327245712
3 1 0.0 7.376194954 2.555188656 31.327245712
4 1 0.0 7.376194954 7.665565491 31.327245712
5 1 0.0 4.425717354 2.555188656 31.327245712
6 1 0.0 4.425717354 7.665565491 31.327245712
7 1 0.0 10.326673508 2.555188656 31.327245712
8 1 0.0 10.326673508 7.665565491 31.327245712
9 1 0.0 0.0 0.0 31.327245712
10 1 0.0 0.0 5.110376835 31.327245712
11 1 0.0 5.900956154 0.0 31.327245712
12 1 0.0 5.900956154 5.110376835 31.327245712
13 1 0.0 2.950478077 0.0 31.327245712
14 1 0.0 2.950478077 5.110376835 31.327245712
15 1 0.0 8.851434708 0.0 31.327245712
16 1 0.0 8.851434708 5.110376835 31.327245712
17 1 0.0 1.475237012 4.258647919 26.504890442
18 1 0.0 1.475237012 9.36902523 26.504890442
19 1 0.0 7.376193047 4.258647919 26.504890442
20 1 0.0 7.376193047 9.36902523 26.504890442
21 1 0.0 4.42571497 4.258647919 26.504890442
22 1 0.0 4.42571497 9.36902523 26.504890442
23 1 0.0 10.3266716 4.258647919 26.504890442
24 1 0.0 10.3266716 9.36902523 26.504890442
25 1 0.0 0.0 1.703459859 26.504890442
26 1 0.0 0.0 6.813836575 26.504890442
27 1 0.0 5.900956154 1.703459859 26.504890442
28 1 0.0 5.900956154 6.813836575 26.504890442
29 1 0.0 2.950478077 1.703459859 26.504890442
30 1 0.0 2.950478077 6.813836575 26.504890442
31 1 0.0 8.851434708 1.703459859 26.504890442
32 1 0.0 8.851434708 6.813836575 26.504890442
33 1 0.0 0.0 3.406917095 28.899740219
34 1 0.0 0.0 8.51729393 28.899740219
35 1 0.0 5.900956154 3.406917095 28.899740219
36 1 0.0 5.900956154 8.51729393 28.899740219
37 1 0.0 2.950478077 3.406917095 28.899740219
38 1 0.0 2.950478077 8.51729393 28.899740219
39 1 0.0 8.851434708 3.406917095 28.899740219
40 1 0.0 8.851434708 8.51729393 28.899740219
41 1 0.0 1.475239873 0.851728976 28.899740219
42 1 0.0 1.475239873 5.962105274 28.899740219
43 1 0.0 7.376195908 0.851728976 28.899740219
44 1 0.0 7.376195908 5.962105274 28.899740219
45 1 0.0 4.425717831 0.851728976 28.899740219
46 1 0.0 4.425717831 5.962105274 28.899740219
47 1 0.0 10.326673508 0.851728976 28.899740219
48 1 0.0 10.326673508 5.962105274 28.899740219
49 1 0.0 1.475239038 2.555188656 24.090135574
50 1 0.0 1.475239038 7.665565491 24.090135574
51 1 0.0 7.376194954 2.555188656 24.090135574
52 1 0.0 7.376194954 7.665565491 24.090135574
53 1 0.0 4.425717354 2.555188656 24.090135574
54 1 0.0 4.425717354 7.665565491 24.090135574
55 1 0.0 10.326673508 2.555188656 24.090135574
56 1 0.0 10.326673508 7.665565491 24.090135574
57 1 0.0 0.0 0.0 24.090135574
58 1 0.0 0.0 5.110376835 24.090135574
59 1 0.0 5.900956154 0.0 24.090135574
60 1 0.0 5.900956154 5.110376835 24.090135574
61 1 0.0 2.950478077 0.0 24.090135574
62 1 0.0 2.950478077 5.110376835 24.090135574
63 1 0.0 8.851434708 0.0 24.090135574
64 1 0.0 8.851434708 5.110376835 24.090135574
65 1 0.0 1.475237012 4.258647919 19.272853851
66 1 0.0 1.475237012 9.36902523 19.272853851
67 1 0.0 7.376193047 4.258647919 19.272853851
68 1 0.0 7.376193047 9.36902523 19.272853851
69 1 0.0 4.42571497 4.258647919 19.272853851
70 1 0.0 4.42571497 9.36902523 19.272853851
71 1 0.0 10.3266716 4.258647919 19.272853851
72 1 0.0 10.3266716 9.36902523 19.272853851
73 1 0.0 0.0 1.703459859 19.272853851
74 1 0.0 0.0 6.813836575 19.272853851
75 1 0.0 5.900956154 1.703459859 19.272853851
76 1 0.0 5.900956154 6.813836575 19.272853851
77 1 0.0 2.950478077 1.703459859 19.272853851
78 1 0.0 2.950478077 6.813836575 19.272853851
79 1 0.0 8.851434708 1.703459859 19.272853851
80 1 0.0 8.851434708 6.813836575 19.272853851
81 1 0.0 0.0 3.406917095 21.681493759
82 1 0.0 0.0 8.51729393 21.681493759
83 1 0.0 5.900956154 3.406917095 21.681493759
84 1 0.0 5.900956154 8.51729393 21.681493759
85 1 0.0 2.950478077 3.406917095 21.681493759
86 1 0.0 2.950478077 8.51729393 21.681493759
87 1 0.0 8.851434708 3.406917095 21.681493759
88 1 0.0 8.851434708 8.51729393 21.681493759
89 1 0.0 1.475239873 0.851728976 21.681493759
90 1 0.0 1.475239873 5.962105274 21.681493759
91 1 0.0 7.376195908 0.851728976 21.681493759
92 1 0.0 7.376195908 5.962105274 21.681493759
93 1 0.0 4.425717831 0.851728976 21.681493759
94 1 0.0 4.425717831 5.962105274 21.681493759
95 1 0.0 10.326673508 0.851728976 21.681493759
96 1 0.0 10.326673508 5.962105274 21.681493759
97 1 0.0 1.475239038 2.555188656 16.858100891
98 1 0.0 1.475239038 7.665565491 16.858100891
99 1 0.0 7.376194954 2.555188656 16.858100891
100 1 0.0 7.376194954 7.665565491 16.858100891
101 1 0.0 4.425717354 2.555188656 16.858100891
102 1 0.0 4.425717354 7.665565491 16.858100891
103 1 0.0 10.326673508 2.555188656 16.858100891
104 1 0.0 10.326673508 7.665565491 16.858100891
105 1 0.0 0.0 0.0 16.858100891
106 1 0.0 0.0 5.110376835 16.858100891
107 1 0.0 5.900956154 0.0 16.858100891
108 1 0.0 5.900956154 5.110376835 16.858100891
109 1 0.0 2.950478077 0.0 16.858100891
110 1 0.0 2.950478077 5.110376835 16.858100891
111 1 0.0 8.851434708 0.0 16.858100891
112 1 0.0 8.851434708 5.110376835 16.858100891
113 2 0.0 3.9618116525 5.7026206003 35.8379218359
114 3 0.0 9.4709338505 10.593896912 38.8929065808
115 3 0.0 9.6517237619 1.8696272788 40.4359933666
116 3 0.0 10.5248341011 9.4104340813 43.509682837
117 3 0.0 7.5542993312 0.3868371152 40.8100890223
118 3 0.0 5.1428788365 0.4043764634 38.5036691555
119 3 0.0 10.6294684974 8.8995505365 35.2324415324
120 3 0.0 10.5854215814 -1.7075477648 39.9790588512
121 3 0.0 10.1430260599 -0.2869928671 38.1222422372
122 3 0.0 8.8711189758 0.0203689739 34.5166273849
123 3 0.0 11.4765846508 -0.5172599543 41.8604204221
124 3 0.0 12.7610759988 6.4029267731 42.1842727216
125 3 0.0 12.2178386754 7.925124336 40.0061350924
126 3 0.0 11.2009027906 8.3235782976 37.0532522666
127 3 0.0 -0.4278025825 6.2304060122 45.2225579414
128 3 0.0 -0.0580471257 6.2783049951 43.9949185825
129 3 0.0 0.2736061643 1.4003139453 42.5907997132
130 3 0.0 0.8954535416 8.1150445034 40.9346475227
131 3 0.0 1.8762534674 8.0233910483 37.6647899221
132 3 0.0 3.1396314396 8.9889850057 33.5195751228
133 3 0.0 2.5614094066 9.2785960753 35.4617956738
134 3 0.0 1.0602947311 0.7731931276 39.9339981304
135 3 0.0 0.5329972199 6.2819675055 42.0280808107
136 3 0.0 1.2839196106 6.4885984817 39.5416473973
137 3 0.0 1.8398055296 0.5825605337 37.3279596364
138 3 0.0 2.8562501848 1.0058456469 33.9711771492
139 3 0.0 2.992819058 6.3819093729 33.8476654538
140 3 0.0 7.2375671991 3.3143921648 44.7855826422
141 3 0.0 10.0578175077 3.2073707853 44.3098831118
142 3 0.0 3.4609210766 3.572586112 44.0455501353
143 3 0.0 11.6796358368 3.2574354879 42.6984873136
144 3 0.0 0.9916230271 3.9782162867 40.7230272208
145 3 0.0 5.7252833161 3.5755612787 42.5979561606
146 3 0.0 8.7108068509 3.5071040945 41.556936978
147 3 0.0 3.1051331977 3.8793584379 40.5901564675
148 3 0.0 9.7889902359 3.779126612 37.623939982
149 3 0.0 0.4750346265 4.2499397993 37.7880258084
150 3 0.0 1.6604601723 4.4209889152 34.9985146637
151 3 0.0 11.4594753714 3.5725387027 39.0586625226
152 3 0.0 11.2350825643 3.9582223239 34.5754378671
153 3 0.0 6.8842234153 3.3400973623 38.1668581355
154 3 0.0 6.5499883461 5.5389940888 38.0178545144
155 4 0.0 6.9856992913 2.9198418805 35.5488804774
156 5 0.0 4.8094588499 4.0874266003 35.7519174446
157 5 0.0 6.3236834438 4.1855499708 35.9738399559
158 5 0.0 6.6093672614 4.4582328435 37.4557278688
159 6 0.0 9.1476040388 10.9927636106 39.7158665979
160 6 0.0 10.4409338505 10.593896912 38.8929065808
161 6 0.0 -0.0497236474 0.6311354163 42.0961056426
162 6 0.0 1.2436061643 1.4003139453 42.5907997132
163 6 0.0 9.3283939502 2.3389098245 39.6510527796
164 6 0.0 10.6217237619 1.8696272788 40.4359933666
165 6 0.0 10.2015042894 8.5841306426 43.1177894075
166 6 0.0 11.4948341011 9.4104340813 43.509682837
167 6 0.0 7.2309695195 -0.3264319583 41.3824569648
168 6 0.0 8.5242993312 0.3868371152 40.8100890223
169 6 0.0 4.8195490248 0.829693672 37.6940623961
170 6 0.0 6.1128788365 0.4043764634 38.5036691555
171 6 0.0 10.3061386857 8.2045005543 35.8268011501
172 6 0.0 11.5994684974 8.8995505365 35.2324415324
173 6 0.0 10.2620917698 -0.8427319349 40.2764666742
174 6 0.0 11.5554215814 -1.7075477648 39.9790588512
175 6 0.0 9.8196962482 -0.1262689396 37.2219502557
176 6 0.0 11.1130260599 -0.2869928671 38.1222422372
177 6 0.0 8.5477891641 -0.4020213668 35.3277650014
178 6 0.0 9.8411189758 0.0203689739 34.5166273849
179 6 0.0 11.1532548391 -0.1448120194 41.0251717354
180 6 0.0 12.4465846508 -0.5172599543 41.8604204221
181 6 0.0 12.4377461871 6.6545333831 43.0635064486
182 6 0.0 13.7310759988 6.4029267731 42.1842727216
183 6 0.0 11.8945088637 8.2985477175 39.1713220528
184 6 0.0 13.1878386754 7.925124336 40.0061350924
185 6 0.0 10.8775729789 8.8517098962 37.7998678621
186 6 0.0 12.1709027906 8.3235782976 37.0532522666
187 6 0.0 -0.7511323942 6.996753763 45.7216260307
188 6 0.0 0.5421974175 6.2304060122 45.2225579414
189 6 0.0 -0.3813769374 6.884804337 43.3104360179
190 6 0.0 0.9119528743 6.2783049951 43.9949185825
191 6 0.0 0.5721237299 8.8397886291 40.3768807389
192 6 0.0 1.8654535416 8.1150445034 40.9346475227
193 6 0.0 1.5529236557 8.2015679556 36.7677889062
194 6 0.0 2.8462534674 8.0233910483 37.6647899221
195 6 0.0 2.8163016279 9.8116854427 33.1201732903
196 6 0.0 4.1096314396 8.9889850057 33.5195751228
197 6 0.0 2.2380795949 8.3938836353 35.2301888275
198 6 0.0 3.5314094066 9.2785960753 35.4617956738
199 6 0.0 0.7369649194 1.2592034813 39.1593035009
200 6 0.0 2.0302947311 0.7731931276 39.9339981304
201 6 0.0 0.2096674082 6.0687186862 41.1387649084
202 6 0.0 1.5029972199 6.2819675055 42.0280808107
203 6 0.0 0.960589799 5.7622635167 40.0973409742
204 6 0.0 2.2539196106 6.4885984817 39.5416473973
205 6 0.0 1.5164757179 1.3759299698 37.7828472827
206 6 0.0 2.8098055296 0.5825605337 37.3279596364
207 6 0.0 2.5329203731 1.4542011202 33.1740979797
208 6 0.0 3.8262501848 1.0058456469 33.9711771492
209 6 0.0 2.6694892463 5.5918356481 33.3870774143
210 6 0.0 3.962819058 6.3819093729 33.8476654538
211 6 0.0 6.9142373874 4.1740456238 45.0975982882
212 6 0.0 8.2075671991 3.3143921648 44.7855826422
213 6 0.0 9.734487696 4.0958358768 44.0931168458
214 6 0.0 11.0278175077 3.2073707853 44.3098831118
215 6 0.0 3.1375912649 3.9956880252 43.2347834587
216 6 0.0 4.4309210766 3.572586112 44.0455501353
217 6 0.0 11.3563060251 3.9050344426 42.0527525177
218 6 0.0 12.6496358368 3.2574354879 42.6984873136
219 6 0.0 0.6682932155 4.3836062925 39.9032609272
220 6 0.0 1.9616230271 3.9782162867 40.7230272208
221 6 0.0 5.4019535045 4.1210464189 41.8639236037
222 6 0.0 6.6952833161 3.5755612787 42.5979561606
223 6 0.0 8.3874770392 4.1163184923 42.2390041671
224 6 0.0 9.6808068509 3.5071040945 41.556936978
225 6 0.0 2.781803386 4.0463315189 41.489310416
226 6 0.0 4.0751331977 3.8793584379 40.5901564675
227 6 0.0 9.4656604242 2.906633202 37.8980076423
228 6 0.0 10.7589902359 3.779126612 37.623939982
229 6 0.0 0.1517048148 4.4893663671 38.6706541285
230 6 0.0 1.4450346265 4.2499397993 37.7880258084
231 6 0.0 1.3371303606 5.1322973906 34.4237120144
232 6 0.0 2.6304601723 4.4209889152 34.9985146637
233 6 0.0 11.1361455597 4.3088646958 39.6010478697
234 6 0.0 12.4294753714 3.5725387027 39.0586625226
235 6 0.0 10.9117527526 4.3136911992 33.7328230609
236 6 0.0 12.2050825643 3.9582223239 34.5754378671
237 6 0.0 4.347180083 3.4245891727 36.4922127796
238 6 0.0 4.5958364616 3.675557016 34.7594536515
239 6 0.0 6.7671361967 4.9929560884 35.3806447991
240 6 0.0 6.7637231615 2.2089696373 36.2532833881
241 6 0.0 7.9958161142 3.0449206595 35.6335101522
242 6 0.0 4.4041712242 6.0572465741 37.0569406798
243 6 0.0 7.0007148734 3.6671619618 39.0847414205
