# LAMMPS data file written by Ovito Basic 3.0.0-dev791
231 atoms
6 atom types
0.0 11.8019123077 xlo xhi
0.0 10.2207536697 ylo yhi
0.0 70.0 zlo zhi

Atoms  # charge

1 1 0.0 1.475239038 2.555188656 38.578144073
2 1 0.0 1.475239038 7.665565491 38.578144073
3 1 0.0 4.425717354 2.555188656 38.578144073
4 1 0.0 4.425717354 7.665565491 38.578144073
5 1 0.0 7.376194954 2.555188656 38.578144073
6 1 0.0 7.376194954 7.665565491 38.578144073
7 1 0.0 10.326673508 2.555188656 38.578144073
8 1 0.0 10.326673508 7.665565491 38.578144073
9 1 0.0 0.0 0.0 38.578144073
10 1 0.0 0.0 5.110376835 38.578144073
11 1 0.0 2.950478077 0.0 38.578144073
12 1 0.0 2.950478077 5.110376835 38.578144073
13 1 0.0 5.900956154 0.0 38.578144073
14 1 0.0 5.900956154 5.110376835 38.578144073
15 1 0.0 8.851434708 0.0 38.578144073
16 1 0.0 8.851434708 5.110376835 38.578144073
17 1 0.0 0.0 3.406917095 36.150642395
18 1 0.0 0.0 8.51729393 36.150642395
19 1 0.0 2.950478077 3.406917095 36.150642395
20 1 0.0 2.950478077 8.51729393 36.150642395
21 1 0.0 5.900956154 3.406917095 36.150642395
22 1 0.0 5.900956154 8.51729393 36.150642395
23 1 0.0 8.851434708 3.406917095 36.150642395
24 1 0.0 8.851434708 8.51729393 36.150642395
25 1 0.0 1.475239873 0.851728976 36.150642395
26 1 0.0 1.475239873 5.962105274 36.150642395
27 1 0.0 4.425717831 0.851728976 36.150642395
28 1 0.0 4.425717831 5.962105274 36.150642395
29 1 0.0 7.376195908 0.851728976 36.150642395
30 1 0.0 7.376195908 5.962105274 36.150642395
31 1 0.0 10.326673508 0.851728976 36.150642395
32 1 0.0 10.326673508 5.962105274 36.150642395
33 1 0.0 1.475237012 4.258647919 33.74200058
34 1 0.0 1.475237012 9.36902523 33.74200058
35 1 0.0 4.42571497 4.258647919 33.74200058
36 1 0.0 4.42571497 9.36902523 33.74200058
37 1 0.0 7.376193047 4.258647919 33.74200058
38 1 0.0 7.376193047 9.36902523 33.74200058
39 1 0.0 10.3266716 4.258647919 33.74200058
40 1 0.0 10.3266716 9.36902523 33.74200058
41 1 0.0 0.0 1.703459859 33.74200058
42 1 0.0 0.0 6.813836575 33.74200058
43 1 0.0 2.950478077 1.703459859 33.74200058
44 1 0.0 2.950478077 6.813836575 33.74200058
45 1 0.0 5.900956154 1.703459859 33.74200058
46 1 0.0 5.900956154 6.813836575 33.74200058
47 1 0.0 8.851434708 1.703459859 33.74200058
48 1 0.0 8.851434708 6.813836575 33.74200058
49 1 0.0 1.475239038 2.555188656 31.327245712
50 1 0.0 1.475239038 7.665565491 31.327245712
51 1 0.0 4.425717354 2.555188656 31.327245712
52 1 0.0 4.425717354 7.665565491 31.327245712
53 1 0.0 7.376194954 2.555188656 31.327245712
54 1 0.0 7.376194954 7.665565491 31.327245712
55 1 0.0 10.326673508 2.555188656 31.327245712
56 1 0.0 10.326673508 7.665565491 31.327245712
57 1 0.0 0.0 0.0 31.327245712
58 1 0.0 0.0 5.110376835 31.327245712
59 1 0.0 2.950478077 0.0 31.327245712
60 1 0.0 2.950478077 5.110376835 31.327245712
61 1 0.0 5.900956154 0.0 31.327245712
62 1 0.0 5.900956154 5.110376835 31.327245712
63 1 0.0 8.851434708 0.0 31.327245712
64 1 0.0 8.851434708 5.110376835 31.327245712
65 1 0.0 0.0 3.406917095 28.899742126
66 1 0.0 0.0 8.51729393 28.899742126
67 1 0.0 2.950478077 3.406917095 28.899742126
68 1 0.0 2.950478077 8.51729393 28.899742126
69 1 0.0 5.900956154 3.406917095 28.899742126
70 1 0.0 5.900956154 8.51729393 28.899742126
71 1 0.0 8.851434708 3.406917095 28.899742126
72 1 0.0 8.851434708 8.51729393 28.899742126
73 1 0.0 1.475239873 0.851728976 28.899742126
74 1 0.0 1.475239873 5.962105274 28.899742126
75 1 0.0 4.425717831 0.851728976 28.899742126
76 1 0.0 4.425717831 5.962105274 28.899742126
77 1 0.0 7.376195908 0.851728976 28.899742126
78 1 0.0 7.376195908 5.962105274 28.899742126
79 1 0.0 10.326673508 0.851728976 28.899742126
80 1 0.0 10.326673508 5.962105274 28.899742126
81 1 0.0 1.475237012 4.258647919 26.504888535
82 1 0.0 1.475237012 9.36902523 26.504888535
83 1 0.0 4.42571497 4.258647919 26.504888535
84 1 0.0 4.42571497 9.36902523 26.504888535
85 1 0.0 7.376193047 4.258647919 26.504888535
86 1 0.0 7.376193047 9.36902523 26.504888535
87 1 0.0 10.3266716 4.258647919 26.504888535
88 1 0.0 10.3266716 9.36902523 26.504888535
89 1 0.0 0.0 1.703459859 26.504888535
90 1 0.0 0.0 6.813836575 26.504888535
91 1 0.0 2.950478077 1.703459859 26.504888535
92 1 0.0 2.950478077 6.813836575 26.504888535
93 1 0.0 5.900956154 1.703459859 26.504888535
94 1 0.0 5.900956154 6.813836575 26.504888535
95 1 0.0 8.851434708 1.703459859 26.504888535
96 1 0.0 8.851434708 6.813836575 26.504888535
97 1 0.0 1.475239038 2.555188656 24.090135574
98 1 0.0 1.475239038 7.665565491 24.090135574
99 1 0.0 4.425717354 2.555188656 24.090135574
100 1 0.0 4.425717354 7.665565491 24.090135574
101 1 0.0 7.376194954 2.555188656 24.090135574
102 1 0.0 7.376194954 7.665565491 24.090135574
103 1 0.0 10.326673508 2.555188656 24.090135574
104 1 0.0 10.326673508 7.665565491 24.090135574
105 1 0.0 0.0 0.0 24.090135574
106 1 0.0 0.0 5.110376835 24.090135574
107 1 0.0 2.950478077 0.0 24.090135574
108 1 0.0 2.950478077 5.110376835 24.090135574
109 1 0.0 5.900956154 0.0 24.090135574
110 1 0.0 5.900956154 5.110376835 24.090135574
111 1 0.0 8.851434708 0.0 24.090135574
112 1 0.0 8.851434708 5.110376835 24.090135574
113 1 0.0 0.0 3.406917095 21.681495667
114 1 0.0 0.0 8.51729393 21.681495667
115 1 0.0 2.950478077 3.406917095 21.681495667
116 1 0.0 2.950478077 8.51729393 21.681495667
117 1 0.0 5.900956154 3.406917095 21.681495667
118 1 0.0 5.900956154 8.51729393 21.681495667
119 1 0.0 8.851434708 3.406917095 21.681495667
120 1 0.0 8.851434708 8.51729393 21.681495667
121 1 0.0 1.475239873 0.851728976 21.681495667
122 1 0.0 1.475239873 5.962105274 21.681495667
123 1 0.0 4.425717831 0.851728976 21.681495667
124 1 0.0 4.425717831 5.962105274 21.681495667
125 1 0.0 7.376195908 0.851728976 21.681495667
126 1 0.0 7.376195908 5.962105274 21.681495667
127 1 0.0 10.326673508 0.851728976 21.681495667
128 1 0.0 10.326673508 5.962105274 21.681495667
129 1 0.0 1.475237012 4.258647919 19.272855759
130 1 0.0 1.475237012 9.36902523 19.272855759
131 1 0.0 4.42571497 4.258647919 19.272855759
132 1 0.0 4.42571497 9.36902523 19.272855759
133 1 0.0 7.376193047 4.258647919 19.272855759
134 1 0.0 7.376193047 9.36902523 19.272855759
135 1 0.0 10.3266716 4.258647919 19.272855759
136 1 0.0 10.3266716 9.36902523 19.272855759
137 1 0.0 0.0 1.703459859 19.272855759
138 1 0.0 0.0 6.813836575 19.272855759
139 1 0.0 2.950478077 1.703459859 19.272855759
140 1 0.0 2.950478077 6.813836575 19.272855759
141 1 0.0 5.900956154 1.703459859 19.272855759
142 1 0.0 5.900956154 6.813836575 19.272855759
143 1 0.0 8.851434708 1.703459859 19.272855759
144 1 0.0 8.851434708 6.813836575 19.272855759
145 1 0.0 1.475239038 2.555188656 16.858100891
146 1 0.0 1.475239038 7.665565491 16.858100891
147 1 0.0 4.425717354 2.555188656 16.858100891
148 1 0.0 4.425717354 7.665565491 16.858100891
149 1 0.0 7.376194954 2.555188656 16.858100891
150 1 0.0 7.376194954 7.665565491 16.858100891
151 1 0.0 10.326673508 2.555188656 16.858100891
152 1 0.0 10.326673508 7.665565491 16.858100891
153 1 0.0 0.0 0.0 16.858100891
154 1 0.0 0.0 5.110376835 16.858100891
155 1 0.0 2.950478077 0.0 16.858100891
156 1 0.0 2.950478077 5.110376835 16.858100891
157 1 0.0 5.900956154 0.0 16.858100891
158 1 0.0 5.900956154 5.110376835 16.858100891
159 1 0.0 8.851434708 0.0 16.858100891
160 1 0.0 8.851434708 5.110376835 16.858100891
161 2 0.0 3.961812 5.702621 41.837921
162 3 0.0 0.6724576975 8.1404281846 43.5687911796
163 3 0.0 2.8070627906 7.6711255078 44.3904330232
164 3 0.0 4.8221560898 0.8179997963 46.4660124365
165 3 0.0 5.9373289374 0.5300807257 43.5767521001
166 3 0.0 7.2517392263 -0.3419058647 40.7056720121
167 3 0.0 7.4640540166 8.1991240698 47.4844010686
168 3 0.0 8.7361511876 7.5060868902 45.6532283575
169 3 0.0 9.3497223495 6.7475177809 43.7240884766
170 3 0.0 11.0790765198 6.156509744 42.1002801199
171 3 0.0 1.509434719 5.6493504629 41.7739325358
172 3 0.0 6.0792252449 8.5178068558 42.9783284876
173 3 0.0 2.9996993828 2.8139891346 46.8159946281
174 3 0.0 3.9127782276 6.0286584655 47.2334044115
175 3 0.0 3.1851396292 0.9864270577 44.3685716241
176 3 0.0 5.5770439363 8.579006976 44.6161524878
177 3 0.0 6.9395668611 9.4237376926 41.2042634699
178 3 0.0 4.0623185473 0.4294892671 41.0482954574
179 3 0.0 6.0360715219 6.8119611807 41.3722627456
180 3 0.0 9.5875152174 3.1684062479 40.8695145323
181 3 0.0 6.549988 5.538994 44.017849
182 3 0.0 6.884223 3.340097 44.166859
183 4 0.0 6.9857 2.919842 41.548882
184 5 0.0 6.609367 4.458233 43.455727
185 5 0.0 6.323683 4.18555 41.973839
186 5 0.0 4.809459 4.087427 41.751919
187 6 0.0 0.3491278858 7.2440180143 43.3876651476
188 6 0.0 1.6424576975 8.1404281846 43.5687911796
189 6 0.0 2.4837329789 8.3560003093 44.996489406
190 6 0.0 3.7770627906 7.6711255078 44.3904330232
191 6 0.0 4.4988262781 0.3645719 45.6718078182
192 6 0.0 5.7921560898 0.8179997963 46.4660124365
193 6 0.0 5.6139991257 -0.2810586245 43.9991391117
194 6 0.0 6.9073289374 0.5300807257 43.5767521001
195 6 0.0 6.9284094147 -0.8901671056 41.4376333804
196 6 0.0 8.2217392263 -0.3419058647 40.7056720121
197 6 0.0 7.1407242049 7.9724913988 48.3704007668
198 6 0.0 8.4340540166 8.1991240698 47.4844010686
199 6 0.0 8.4128213759 6.7873256018 45.0877727507
200 6 0.0 9.7061511876 7.5060868902 45.6532283575
201 6 0.0 9.0263925378 6.6439082293 42.8154505434
202 6 0.0 10.3197223495 6.7475177809 43.7240884766
203 6 0.0 10.7557467081 5.252954256 42.2415079964
204 6 0.0 12.0490765198 6.156509744 42.1002801199
205 6 0.0 1.1861049073 6.1277144332 40.9944931572
206 6 0.0 2.479434719 5.6493504629 41.7739325358
207 6 0.0 5.7558954333 9.1224139037 42.2921738764
208 6 0.0 7.0492252449 8.5178068558 42.9783284876
209 6 0.0 2.6763695711 3.4185961825 46.1298400169
210 6 0.0 3.9696993828 2.8139891346 46.8159946281
211 6 0.0 3.5894484159 5.5358805334 46.4629968944
212 6 0.0 4.8827782276 6.0286584655 47.2334044115
213 6 0.0 2.8618098175 1.8980650296 44.295949031
214 6 0.0 4.1551396292 0.9864270577 44.3685716241
215 6 0.0 5.2537141246 8.6529730613 45.5276824385
216 6 0.0 6.5470439363 8.579006976 44.6161524878
217 6 0.0 6.6162370494 8.576496876 40.8599658784
218 6 0.0 7.9095668611 9.4237376926 41.2042634699
219 6 0.0 3.7389887356 1.1138038534 41.6549843233
220 6 0.0 5.0323185473 0.4294892671 41.0482954574
221 6 0.0 5.7127417102 6.1267276362 41.9779134886
222 6 0.0 7.0060715219 6.8119611807 41.3722627456
223 6 0.0 9.2641854057 2.2949106636 40.5986579338
224 6 0.0 10.5575152174 3.1684062479 40.8695145323
225 6 0.0 7.000715 3.667162 45.08474
226 6 0.0 4.404171 6.057247 43.056942
227 6 0.0 7.995816 3.044921 41.633511
228 6 0.0 6.763723 2.20897 42.253284
229 6 0.0 6.767136 4.992956 41.380646
230 6 0.0 4.595837 3.675557 40.759453
231 6 0.0 4.34718 3.424589 42.492214
