# LAMMPS data file written by Ovito Basic 3.0.0-dev791
62 atoms
5 atom types
0.0 20.0 xlo xhi
0.0 20.0 ylo yhi
0.0 20.0 zlo zhi

Atoms  # charge

1 1 0.0 11.37801708 11.21462353 10.69962909
2 2 0.0 6.055066739 11.96707453 7.594137534
3 2 0.0 7.738481522 10.47223397 7.151644293
4 3 0.0 6.117775849 8.363603197 7.198668616
5 4 0.0 5.472390545 9.706226279 7.065774653
6 4 0.0 6.531652732 10.83701894 7.291204266
7 4 0.0 6.760413479 13.03483217 12.60705464
8 4 0.0 10.19462314 7.293149987 7.322739521
9 4 0.0 13.49591971 7.289505356 13.57205368
10 4 0.0 13.70303174 15.06372613 13.53573902
11 4 0.0 7.717215323 13.05190292 11.42559551
12 4 0.0 11.12969845 8.460068425 7.595979989
13 4 0.0 12.32139875 8.24551248 13.44021322
14 4 0.0 13.79424225 14.20061117 12.28764635
15 4 0.0 12.50394789 9.19679496 12.25895753
16 4 0.0 11.28027564 10.08614698 12.06384064
17 4 0.0 8.956046566 12.20080824 11.69859231
18 4 0.0 10.77761239 9.160352934 8.906224741
19 4 0.0 12.6166927 13.23175355 12.18694486
20 4 0.0 11.72312923 10.32185276 9.195577553
21 4 0.0 9.860634811 12.11455463 10.47500306
22 4 0.0 12.71297701 12.36627193 10.93657974
23 5 0.0 6.995077878 8.487737255 6.668040827
24 5 0.0 6.491671102 8.348149847 8.15152674
25 5 0.0 4.661949601 9.790440559 7.795525198
26 5 0.0 5.059482784 9.805284487 6.057375452
27 5 0.0 9.158795336 7.633913189 7.237979523
28 5 0.0 10.46751042 6.79907755 6.385229061
29 5 0.0 10.24663784 6.551442977 8.126196258
30 5 0.0 5.890014577 13.66501014 12.39949562
31 5 0.0 6.403022187 12.01902413 12.8053017
32 5 0.0 7.246100454 13.41104914 13.51289209
33 5 0.0 13.35108231 6.627639461 14.43160007
34 5 0.0 13.59415223 6.665865006 12.67750904
35 5 0.0 14.43370657 7.835217009 13.71561812
36 5 0.0 13.71354631 14.44752648 14.44038648
37 5 0.0 14.553162 15.7515695 13.58351255
38 5 0.0 12.78435218 15.65893979 13.53510727
39 5 0.0 7.193931233 12.67945092 10.53725469
40 5 0.0 8.016704156 14.08545719 11.21678647
41 5 0.0 11.07098846 9.171925163 6.764587811
42 5 0.0 12.16109529 8.091117388 7.636882429
43 5 0.0 11.40080474 7.663821786 13.31395019
44 5 0.0 12.21698332 8.8212967 14.36713067
45 5 0.0 14.73699064 13.64144282 12.30568273
46 5 0.0 13.81906499 14.84925242 11.40415716
47 5 0.0 8.648142342 11.18941309 11.98795659
48 5 0.0 9.514198056 12.61625447 12.54489514
49 5 0.0 9.746017686 9.524599577 8.86883989
50 5 0.0 10.81988621 8.438569931 9.729058689
51 5 0.0 12.68674527 8.619471148 11.3462515
52 5 0.0 13.39070918 9.820664616 12.41777555
53 5 0.0 12.58702067 12.59030888 13.07472138
54 5 0.0 11.67654862 13.79393393 12.17117335
55 5 0.0 10.39816831 9.450864847 11.92458471
56 5 0.0 11.10523426 10.65522777 12.98362646
57 5 0.0 9.291929333 11.6512209 9.661700008
58 5 0.0 10.10616961 13.12493235 10.12757066
59 5 0.0 11.69413117 11.03329041 8.362086538
60 5 0.0 12.7507865 9.944087716 9.245394886
61 5 0.0 13.65486438 11.80625604 10.95786576
62 5 0.0 12.76069029 13.01459881 10.05364257
