ITEM: TIMESTEP
0
ITEM: NUMBER OF ATOMS
624
ITEM: BOX BOUNDS xy xz yz pp pp pp
-8.0558396499999996e-01 2.6938416034999999e+01 0.0000000000000000e+00
-4.5936042399999999e-01 2.3567639576000001e+01 0.0000000000000000e+00
-1.9008472089000001e+01 3.0991527910999999e+01 0.0000000000000000e+00
ITEM: ATOMS id type xs ys zs
1 1 0.029036 0.0191188 0.379664
2 1 0.0790359 0.119119 0.379664
3 1 0.029036 0.0857856 0.425424
4 1 0.079036 0.185786 0.425424
5 1 0.079036 0.0524521 0.470791
6 1 0.029036 0.152452 0.470791
7 1 0.129036 0.0191188 0.379664
8 1 0.179036 0.119119 0.379664
9 1 0.129036 0.0857856 0.425424
10 1 0.179036 0.185786 0.425424
11 1 0.179036 0.0524521 0.470791
12 1 0.129036 0.152452 0.470791
13 1 0.229036 0.0191188 0.379664
14 1 0.279036 0.119119 0.379664
15 1 0.229036 0.0857856 0.425424
16 1 0.279036 0.185786 0.425424
17 1 0.279036 0.0524521 0.470791
18 1 0.229036 0.152452 0.470791
19 1 0.329036 0.0191188 0.379664
20 1 0.379036 0.119119 0.379664
21 1 0.329036 0.0857856 0.425424
22 1 0.379036 0.185786 0.425424
23 1 0.379036 0.0524521 0.470791
24 1 0.329036 0.152452 0.470791
25 1 0.429036 0.0191188 0.379664
26 1 0.479036 0.119119 0.379664
27 1 0.429036 0.0857856 0.425424
28 1 0.479036 0.185786 0.425424
29 1 0.479036 0.0524521 0.470791
30 1 0.429036 0.152452 0.470791
61 1 0.029036 0.219119 0.379664
62 1 0.0790359 0.319119 0.379664
63 1 0.029036 0.285786 0.425424
64 1 0.079036 0.385786 0.425424
65 1 0.079036 0.252452 0.470791
66 1 0.029036 0.352452 0.470791
67 1 0.129036 0.219119 0.379664
68 1 0.179036 0.319119 0.379664
69 1 0.129036 0.285786 0.425424
70 1 0.179036 0.385786 0.425424
71 1 0.179036 0.252452 0.470791
72 1 0.129036 0.352452 0.470791
73 1 0.229036 0.219119 0.379664
74 1 0.279036 0.319119 0.379664
75 1 0.229036 0.285786 0.425424
76 1 0.279036 0.385786 0.425424
77 1 0.279036 0.252452 0.470791
78 1 0.229036 0.352452 0.470791
79 1 0.329036 0.219119 0.379664
80 1 0.379036 0.319119 0.379664
81 1 0.329036 0.285786 0.425424
82 1 0.379036 0.385786 0.425424
83 1 0.379036 0.252452 0.470791
84 1 0.329036 0.352452 0.470791
85 1 0.429036 0.219119 0.379664
86 1 0.479036 0.319119 0.379664
87 1 0.429036 0.285786 0.425424
88 1 0.479036 0.385786 0.425424
89 1 0.479036 0.252452 0.470791
90 1 0.429036 0.352452 0.470791
121 1 0.029036 0.419119 0.379664
122 1 0.0790359 0.519119 0.379664
123 1 0.029036 0.485786 0.425424
124 1 0.079036 0.585786 0.425424
125 1 0.079036 0.452452 0.470791
126 1 0.029036 0.552452 0.470791
127 1 0.129036 0.419119 0.379664
128 1 0.179036 0.519119 0.379664
129 1 0.129036 0.485786 0.425424
130 1 0.179036 0.585786 0.425424
131 1 0.179036 0.452452 0.470791
132 1 0.129036 0.552452 0.470791
133 1 0.229036 0.419119 0.379664
134 1 0.279036 0.519119 0.379664
135 1 0.229036 0.485786 0.425424
136 1 0.279036 0.585786 0.425424
137 1 0.279036 0.452452 0.470791
138 1 0.229036 0.552452 0.470791
139 1 0.329036 0.419119 0.379664
140 1 0.379036 0.519119 0.379664
141 1 0.329036 0.485786 0.425424
142 1 0.379036 0.585786 0.425424
143 1 0.379036 0.452452 0.470791
144 1 0.329036 0.552452 0.470791
145 1 0.429036 0.419119 0.379664
146 1 0.479036 0.519119 0.379664
147 1 0.429036 0.485786 0.425424
148 1 0.479036 0.585786 0.425424
149 1 0.479036 0.452452 0.470791
150 1 0.429036 0.552452 0.470791
181 1 0.029036 0.619119 0.379664
182 1 0.0790359 0.719119 0.379664
183 1 0.029036 0.685786 0.425424
184 1 0.079036 0.785786 0.425424
185 1 0.079036 0.652452 0.470791
186 1 0.029036 0.752452 0.470791
187 1 0.129036 0.619119 0.379664
188 1 0.179036 0.719119 0.379664
189 1 0.129036 0.685786 0.425424
190 1 0.179036 0.785786 0.425424
191 1 0.179036 0.652452 0.470791
192 1 0.129036 0.752452 0.470791
193 1 0.229036 0.619119 0.379664
194 1 0.279036 0.719119 0.379664
195 1 0.229036 0.685786 0.425424
196 1 0.279036 0.785786 0.425424
197 1 0.279036 0.652452 0.470791
198 1 0.229036 0.752452 0.470791
199 1 0.329036 0.619119 0.379664
200 1 0.379036 0.719119 0.379664
201 1 0.329036 0.685786 0.425424
202 1 0.379036 0.785786 0.425424
203 1 0.379036 0.652452 0.470791
204 1 0.329036 0.752452 0.470791
205 1 0.429036 0.619119 0.379664
206 1 0.479036 0.719119 0.379664
207 1 0.429036 0.685786 0.425424
208 1 0.479036 0.785786 0.425424
209 1 0.479036 0.652452 0.470791
210 1 0.429036 0.752452 0.470791
241 1 0.029036 0.819119 0.379664
242 1 0.0790359 0.919119 0.379664
243 1 0.029036 0.885786 0.425424
244 1 0.079036 0.985786 0.425424
245 1 0.079036 0.852452 0.470791
246 1 0.029036 0.952452 0.470791
247 1 0.129036 0.819119 0.379664
248 1 0.179036 0.919119 0.379664
249 1 0.129036 0.885786 0.425424
250 1 0.179036 0.985786 0.425424
251 1 0.179036 0.852452 0.470791
252 1 0.129036 0.952452 0.470791
253 1 0.229036 0.819119 0.379664
254 1 0.279036 0.919119 0.379664
255 1 0.229036 0.885786 0.425424
256 1 0.279036 0.985786 0.425424
257 1 0.279036 0.852452 0.470791
258 1 0.229036 0.952452 0.470791
259 1 0.329036 0.819119 0.379664
260 1 0.379036 0.919119 0.379664
261 1 0.329036 0.885786 0.425424
262 1 0.379036 0.985786 0.425424
263 1 0.379036 0.852452 0.470791
264 1 0.329036 0.952452 0.470791
265 1 0.429036 0.819119 0.379664
266 1 0.479036 0.919119 0.379664
267 1 0.429036 0.885786 0.425424
268 1 0.479036 0.985786 0.425424
269 1 0.479036 0.852452 0.470791
270 1 0.429036 0.952452 0.470791
301 1 0.029036 0.0191188 0.516077
302 1 0.079036 0.119119 0.516077
303 1 0.029036 0.0857856 0.561444
304 1 0.0790363 0.185786 0.561445
305 1 0.079036 0.0524523 0.607204
306 1 0.0290363 0.152452 0.607204
307 1 0.129036 0.0191188 0.516077
308 1 0.179036 0.119119 0.516077
309 1 0.129036 0.0857857 0.561444
310 1 0.179037 0.185785 0.561444
311 1 0.179036 0.0524528 0.607204
312 1 0.129037 0.152454 0.607205
313 1 0.229036 0.0191188 0.516077
314 1 0.279036 0.119119 0.516077
315 1 0.229036 0.0857859 0.561445
316 1 0.279036 0.18578 0.561442
317 1 0.279036 0.052453 0.607204
318 1 0.229036 0.152456 0.607207
319 1 0.329036 0.0191188 0.516077
320 1 0.379036 0.119119 0.516077
321 1 0.329036 0.0857858 0.561445
322 1 0.379035 0.185786 0.561445
323 1 0.379036 0.0524526 0.607204
324 1 0.329035 0.152456 0.607206
325 1 0.429036 0.0191188 0.516077
326 1 0.479036 0.119119 0.516077
327 1 0.429036 0.0857857 0.561444
328 1 0.479036 0.185786 0.561444
329 1 0.479036 0.0524522 0.607204
330 1 0.429035 0.152453 0.607204
361 1 0.029036 0.219119 0.516077
362 1 0.079036 0.319119 0.516077
363 1 0.0290363 0.285786 0.561444
364 1 0.0790351 0.385786 0.561444
365 1 0.0790372 0.252453 0.607205
366 1 0.0290367 0.352452 0.607204
367 1 0.129036 0.219119 0.516077
368 1 0.179037 0.319119 0.516079
369 1 0.129036 0.285786 0.561443
370 1 0.17903 0.385789 0.561437
371 1 0.179029 0.252461 0.60719
372 1 0.129036 0.352453 0.607192
373 1 0.229037 0.219119 0.516078
374 1 0.279036 0.319118 0.516082
375 1 0.229034 0.285779 0.561434
376 1 0.279036 0.385794 0.561427
377 1 0.279023 0.252455 0.607162
378 1 0.229065 0.35245 0.60714
379 1 0.329035 0.219119 0.516079
380 1 0.379035 0.319119 0.516079
381 1 0.329037 0.285777 0.561435
382 1 0.379045 0.385792 0.561438
383 1 0.379031 0.252458 0.607207
384 1 0.329023 0.352456 0.607116
385 1 0.429036 0.219119 0.516077
386 1 0.479036 0.319119 0.516077
387 1 0.429034 0.285787 0.561445
388 1 0.479037 0.38578 0.561441
389 1 0.479035 0.252454 0.607205
390 1 0.429035 0.352455 0.607208
421 1 0.029036 0.419119 0.516077
422 1 0.0790359 0.519119 0.516077
423 1 0.0290361 0.485786 0.561444
424 1 0.0790361 0.585785 0.561444
425 1 0.0790369 0.452451 0.607205
426 1 0.0290363 0.552452 0.607204
427 1 0.129036 0.419119 0.516077
428 1 0.179036 0.519119 0.516077
429 1 0.129035 0.485786 0.561444
430 1 0.179036 0.585785 0.561445
431 1 0.179029 0.452445 0.607191
432 1 0.129037 0.552451 0.607205
433 1 0.229036 0.419118 0.516078
434 1 0.279036 0.519119 0.516077
435 1 0.229034 0.485786 0.561442
436 1 0.279036 0.585784 0.561445
437 1 0.279024 0.452451 0.607176
438 1 0.229036 0.552448 0.607207
439 1 0.329037 0.419118 0.516078
440 1 0.379036 0.519119 0.516077
441 1 0.329039 0.485785 0.561444
442 1 0.379034 0.585787 0.561443
443 1 0.379036 0.452451 0.607211
444 1 0.329037 0.552447 0.607207
445 1 0.429037 0.41912 0.516078
446 1 0.479037 0.519118 0.51608
447 1 0.429031 0.485787 0.561439
448 1 0.479035 0.585786 0.561439
449 1 0.47903 0.452465 0.607146
450 1 0.429039 0.552464 0.607175
481 1 0.029036 0.619119 0.516077
482 1 0.079036 0.719119 0.516077
483 1 0.029036 0.685786 0.561444
484 1 0.079036 0.785786 0.561444
485 1 0.079036 0.652452 0.607204
486 1 0.029036 0.752452 0.607204
487 1 0.129036 0.619119 0.516077
488 1 0.179036 0.719119 0.516077
489 1 0.129036 0.685786 0.561444
490 1 0.179036 0.785786 0.561444
491 1 0.179036 0.652452 0.607204
492 1 0.129036 0.752452 0.607204
493 1 0.229036 0.619119 0.516077
494 1 0.279036 0.719119 0.516077
495 1 0.229036 0.685786 0.561444
496 1 0.279036 0.785786 0.561444
497 1 0.279036 0.652451 0.607204
498 1 0.229036 0.752452 0.607204
499 1 0.329036 0.619119 0.516077
500 1 0.379036 0.719119 0.516077
501 1 0.329036 0.685785 0.561445
502 1 0.379036 0.785786 0.561444
503 1 0.379038 0.65245 0.607206
504 1 0.329036 0.752452 0.607204
505 1 0.429036 0.619119 0.516077
506 1 0.479036 0.719119 0.516077
507 1 0.429034 0.685786 0.561443
508 1 0.479036 0.785785 0.561445
509 1 0.479038 0.652454 0.607179
510 1 0.429037 0.752451 0.607205
541 1 0.029036 0.819119 0.516077
542 1 0.079036 0.919119 0.516077
543 1 0.029036 0.885786 0.561444
544 1 0.079036 0.985786 0.561444
545 1 0.0790359 0.852452 0.607204
546 1 0.029036 0.952452 0.607204
547 1 0.129036 0.819119 0.516077
548 1 0.179036 0.919119 0.516077
549 1 0.129036 0.885786 0.561444
550 1 0.179036 0.985786 0.561444
551 1 0.179036 0.852452 0.607204
552 1 0.129036 0.952452 0.607204
553 1 0.229036 0.819119 0.516077
554 1 0.279036 0.919119 0.516077
555 1 0.229036 0.885786 0.561444
556 1 0.279036 0.985786 0.561444
557 1 0.279036 0.852452 0.607204
558 1 0.229036 0.952452 0.607204
559 1 0.329036 0.819119 0.516077
560 1 0.379036 0.919119 0.516077
561 1 0.329036 0.885786 0.561444
562 1 0.379036 0.985786 0.561444
563 1 0.379036 0.852452 0.607204
564 1 0.329036 0.952452 0.607204
565 1 0.429036 0.819119 0.516077
566 1 0.479036 0.919119 0.516077
567 1 0.429036 0.885786 0.561444
568 1 0.479036 0.985786 0.561444
569 1 0.479036 0.852452 0.607204
570 1 0.429036 0.952452 0.607204
601 2 0.442373 0.529264 0.664182
602 3 0.483321 0.529097 0.664141
609 2 0.48822 0.62099 0.664182
612 2 0.488232 0.437562 0.664194
613 2 0.172389 0.348116 0.664175
614 3 0.213089 0.348079 0.664185
615 3 0.239159 0.399177 0.664151
616 3 0.289114 0.399139 0.664147
617 3 0.315159 0.348147 0.664188
618 3 0.289097 0.297054 0.664152
619 3 0.239144 0.297085 0.664147
620 2 0.355873 0.348105 0.66419
621 2 0.218256 0.439823 0.664167
622 2 0.310015 0.439815 0.664173
623 2 0.31002 0.256409 0.664176
624 2 0.218263 0.256403 0.664167
31 1 0.529036 0.0191188 0.379664
32 1 0.579036 0.119119 0.379664
33 1 0.529036 0.0857856 0.425424
34 1 0.579036 0.185786 0.425424
35 1 0.579036 0.0524521 0.470791
36 1 0.529036 0.152452 0.470791
37 1 0.629036 0.0191188 0.379664
38 1 0.679036 0.119119 0.379664
39 1 0.629036 0.0857856 0.425424
40 1 0.679036 0.185786 0.425424
41 1 0.679036 0.0524521 0.470791
42 1 0.629036 0.152452 0.470791
43 1 0.729036 0.0191188 0.379664
44 1 0.779036 0.119119 0.379664
45 1 0.729036 0.0857856 0.425424
46 1 0.779036 0.185786 0.425424
47 1 0.779036 0.0524521 0.470791
48 1 0.729036 0.152452 0.470791
49 1 0.829036 0.0191188 0.379664
50 1 0.879036 0.119119 0.379664
51 1 0.829036 0.0857856 0.425424
52 1 0.879036 0.185786 0.425424
53 1 0.879036 0.0524521 0.470791
54 1 0.829036 0.152452 0.470791
55 1 0.929036 0.0191188 0.379664
56 1 0.979036 0.119119 0.379664
57 1 0.929036 0.0857856 0.425424
58 1 0.979036 0.185786 0.425424
59 1 0.979036 0.0524521 0.470791
60 1 0.929036 0.152452 0.470791
91 1 0.529036 0.219119 0.379664
92 1 0.579036 0.319119 0.379664
93 1 0.529036 0.285786 0.425424
94 1 0.579036 0.385786 0.425424
95 1 0.579036 0.252452 0.470791
96 1 0.529036 0.352452 0.470791
97 1 0.629036 0.219119 0.379664
98 1 0.679036 0.319119 0.379664
99 1 0.629036 0.285786 0.425424
100 1 0.679036 0.385786 0.425424
101 1 0.679036 0.252452 0.470791
102 1 0.629036 0.352452 0.470791
103 1 0.729036 0.219119 0.379664
104 1 0.779036 0.319119 0.379664
105 1 0.729036 0.285786 0.425424
106 1 0.779036 0.385786 0.425424
107 1 0.779036 0.252452 0.470791
108 1 0.729036 0.352452 0.470791
109 1 0.829036 0.219119 0.379664
110 1 0.879036 0.319119 0.379664
111 1 0.829036 0.285786 0.425424
112 1 0.879036 0.385786 0.425424
113 1 0.879036 0.252452 0.470791
114 1 0.829036 0.352452 0.470791
115 1 0.929036 0.219119 0.379664
116 1 0.979036 0.319119 0.379664
117 1 0.929036 0.285786 0.425424
118 1 0.979036 0.385786 0.425424
119 1 0.979036 0.252452 0.470791
120 1 0.929036 0.352452 0.470791
151 1 0.529036 0.419119 0.379664
152 1 0.579036 0.519119 0.379664
153 1 0.529036 0.485786 0.425424
154 1 0.579036 0.585786 0.425424
155 1 0.579036 0.452452 0.470791
156 1 0.529036 0.552452 0.470791
157 1 0.629036 0.419119 0.379664
158 1 0.679036 0.519119 0.379664
159 1 0.629036 0.485786 0.425424
160 1 0.679036 0.585786 0.425424
161 1 0.679036 0.452452 0.470791
162 1 0.629036 0.552452 0.470791
163 1 0.729036 0.419119 0.379664
164 1 0.779036 0.519119 0.379664
165 1 0.729036 0.485786 0.425424
166 1 0.779036 0.585786 0.425424
167 1 0.779036 0.452452 0.470791
168 1 0.729036 0.552452 0.470791
169 1 0.829036 0.419119 0.379664
170 1 0.879036 0.519119 0.379664
171 1 0.829036 0.485786 0.425424
172 1 0.879036 0.585786 0.425424
173 1 0.879036 0.452452 0.470791
174 1 0.829036 0.552452 0.470791
175 1 0.929036 0.419119 0.379664
176 1 0.979036 0.519119 0.379664
177 1 0.929036 0.485786 0.425424
178 1 0.979036 0.585786 0.425424
179 1 0.979036 0.452452 0.470791
180 1 0.929036 0.552452 0.470791
211 1 0.529036 0.619119 0.379664
212 1 0.579036 0.719119 0.379664
213 1 0.529036 0.685786 0.425424
214 1 0.579036 0.785786 0.425424
215 1 0.579036 0.652452 0.470791
216 1 0.529036 0.752452 0.470791
217 1 0.629036 0.619119 0.379664
218 1 0.679036 0.719119 0.379664
219 1 0.629036 0.685786 0.425424
220 1 0.679036 0.785786 0.425424
221 1 0.679036 0.652452 0.470791
222 1 0.629036 0.752452 0.470791
223 1 0.729036 0.619119 0.379664
224 1 0.779036 0.719119 0.379664
225 1 0.729036 0.685786 0.425424
226 1 0.779036 0.785786 0.425424
227 1 0.779036 0.652452 0.470791
228 1 0.729036 0.752452 0.470791
229 1 0.829036 0.619119 0.379664
230 1 0.879036 0.719119 0.379664
231 1 0.829036 0.685786 0.425424
232 1 0.879036 0.785786 0.425424
233 1 0.879036 0.652452 0.470791
234 1 0.829036 0.752452 0.470791
235 1 0.929036 0.619119 0.379664
236 1 0.979036 0.719119 0.379664
237 1 0.929036 0.685786 0.425424
238 1 0.979036 0.785786 0.425424
239 1 0.979036 0.652452 0.470791
240 1 0.929036 0.752452 0.470791
271 1 0.529036 0.819119 0.379664
272 1 0.579036 0.919119 0.379664
273 1 0.529036 0.885786 0.425424
274 1 0.579036 0.985786 0.425424
275 1 0.579036 0.852452 0.470791
276 1 0.529036 0.952452 0.470791
277 1 0.629036 0.819119 0.379664
278 1 0.679036 0.919119 0.379664
279 1 0.629036 0.885786 0.425424
280 1 0.679036 0.985786 0.425424
281 1 0.679036 0.852452 0.470791
282 1 0.629036 0.952452 0.470791
283 1 0.729036 0.819119 0.379664
284 1 0.779036 0.919119 0.379664
285 1 0.729036 0.885786 0.425424
286 1 0.779036 0.985786 0.425424
287 1 0.779036 0.852452 0.470791
288 1 0.729036 0.952452 0.470791
289 1 0.829036 0.819119 0.379664
290 1 0.879036 0.919119 0.379664
291 1 0.829036 0.885786 0.425424
292 1 0.879036 0.985786 0.425424
293 1 0.879036 0.852452 0.470791
294 1 0.829036 0.952452 0.470791
295 1 0.929036 0.819119 0.379664
296 1 0.979036 0.919119 0.379664
297 1 0.929036 0.885786 0.425424
298 1 0.979036 0.985786 0.425424
299 1 0.979036 0.852452 0.470791
300 1 0.929036 0.952452 0.470791
331 1 0.529036 0.0191188 0.516077
332 1 0.579036 0.119119 0.516077
333 1 0.529036 0.0857856 0.561444
334 1 0.579036 0.185786 0.561444
335 1 0.579036 0.0524521 0.607204
336 1 0.529036 0.152452 0.607204
337 1 0.629036 0.0191188 0.516077
338 1 0.679036 0.119119 0.516077
339 1 0.629036 0.0857856 0.561444
340 1 0.679036 0.185786 0.561444
341 1 0.679036 0.0524521 0.607204
342 1 0.629036 0.152452 0.607204
343 1 0.729036 0.0191188 0.516077
344 1 0.779036 0.119119 0.516077
345 1 0.729036 0.0857856 0.561444
346 1 0.779036 0.185786 0.561444
347 1 0.779036 0.0524521 0.607204
348 1 0.729036 0.152452 0.607204
349 1 0.829036 0.0191188 0.516077
350 1 0.879036 0.119119 0.516077
351 1 0.829036 0.0857856 0.561444
352 1 0.879036 0.185786 0.561444
353 1 0.879036 0.0524521 0.607204
354 1 0.829036 0.152452 0.607204
355 1 0.929036 0.0191188 0.516077
356 1 0.979036 0.119119 0.516077
357 1 0.929036 0.0857856 0.561444
358 1 0.979036 0.185786 0.561444
359 1 0.979036 0.0524521 0.607204
360 1 0.929036 0.152452 0.607204
391 1 0.529036 0.219119 0.516077
392 1 0.579036 0.319118 0.516077
393 1 0.529036 0.285786 0.561445
394 1 0.579035 0.385777 0.561439
395 1 0.579036 0.252453 0.607204
396 1 0.529036 0.35246 0.607208
397 1 0.629036 0.219119 0.516077
398 1 0.679036 0.319119 0.516077
399 1 0.629036 0.285786 0.561445
400 1 0.679035 0.385787 0.561445
401 1 0.679036 0.252453 0.607204
402 1 0.629034 0.352455 0.607206
403 1 0.729036 0.219119 0.516077
404 1 0.779036 0.319119 0.516077
405 1 0.729036 0.285786 0.561444
406 1 0.779036 0.385785 0.561444
407 1 0.779036 0.252452 0.607204
408 1 0.729035 0.352453 0.607204
409 1 0.829036 0.219119 0.516077
410 1 0.879036 0.319119 0.516077
411 1 0.829036 0.285786 0.561444
412 1 0.879036 0.385786 0.561444
413 1 0.879036 0.252452 0.607204
414 1 0.829036 0.352452 0.607204
415 1 0.929036 0.219119 0.516077
416 1 0.979036 0.319119 0.516077
417 1 0.929036 0.285786 0.561444
418 1 0.979036 0.385785 0.561444
419 1 0.979036 0.252452 0.607204
420 1 0.929036 0.352452 0.607204
451 1 0.529036 0.41912 0.51608
452 1 0.579036 0.519119 0.516082
453 1 0.529034 0.485786 0.561431
454 1 0.579036 0.585787 0.561438
455 1 0.579036 0.452463 0.607131
456 1 0.529043 0.552423 0.60718
457 1 0.629035 0.419119 0.516079
458 1 0.679035 0.51912 0.516079
459 1 0.629042 0.485787 0.561437
460 1 0.679039 0.585788 0.561442
461 1 0.679031 0.452456 0.607208
462 1 0.62903 0.552466 0.607161
463 1 0.729036 0.419119 0.516077
464 1 0.779036 0.519119 0.516077
465 1 0.729035 0.485786 0.561445
466 1 0.779036 0.585785 0.561444
467 1 0.779035 0.452452 0.607204
468 1 0.729033 0.552452 0.607206
469 1 0.829036 0.419119 0.516077
470 1 0.879036 0.519119 0.516077
471 1 0.829036 0.485786 0.561444
472 1 0.879036 0.585786 0.561444
473 1 0.879036 0.452452 0.607204
474 1 0.829036 0.552452 0.607204
475 1 0.929036 0.419119 0.516077
476 1 0.979036 0.519119 0.516077
477 1 0.929036 0.485786 0.561444
478 1 0.979036 0.585786 0.561444
479 1 0.979036 0.452452 0.607204
480 1 0.929036 0.552452 0.607204
511 1 0.529036 0.619117 0.516079
512 1 0.579036 0.719119 0.516077
513 1 0.529036 0.685788 0.561441
514 1 0.579036 0.785785 0.561445
515 1 0.579028 0.652456 0.607178
516 1 0.529036 0.75245 0.607206
517 1 0.629036 0.619118 0.516079
518 1 0.679036 0.719119 0.516077
519 1 0.629038 0.685786 0.561443
520 1 0.679036 0.785786 0.561444
521 1 0.679033 0.65245 0.607207
522 1 0.629035 0.75245 0.607205
523 1 0.729036 0.619119 0.516077
524 1 0.779036 0.719119 0.516077
525 1 0.729036 0.685785 0.561445
526 1 0.779036 0.785785 0.561444
527 1 0.779035 0.652452 0.607204
528 1 0.729036 0.752452 0.607204
529 1 0.829036 0.619119 0.516077
530 1 0.879036 0.719119 0.516077
531 1 0.829036 0.685786 0.561444
532 1 0.879036 0.785786 0.561444
533 1 0.879036 0.652452 0.607204
534 1 0.829036 0.752452 0.607204
535 1 0.929036 0.619119 0.516077
536 1 0.979036 0.719119 0.516077
537 1 0.929036 0.685786 0.561444
538 1 0.979036 0.785786 0.561444
539 1 0.979036 0.652452 0.607204
540 1 0.929036 0.752452 0.607204
571 1 0.529036 0.819119 0.516077
572 1 0.579036 0.919119 0.516077
573 1 0.529036 0.885786 0.561444
574 1 0.579036 0.985786 0.561444
575 1 0.579036 0.852452 0.607204
576 1 0.529036 0.952452 0.607204
577 1 0.629036 0.819119 0.516077
578 1 0.679036 0.919119 0.516077
579 1 0.629036 0.885786 0.561444
580 1 0.679036 0.985786 0.561444
581 1 0.679036 0.852452 0.607204
582 1 0.629036 0.952452 0.607204
583 1 0.729036 0.819119 0.516077
584 1 0.779036 0.919119 0.516077
585 1 0.729036 0.885786 0.561444
586 1 0.779036 0.985786 0.561444
587 1 0.779036 0.852452 0.607204
588 1 0.729036 0.952452 0.607204
589 1 0.829036 0.819119 0.516077
590 1 0.879036 0.919119 0.516077
591 1 0.829036 0.885786 0.561444
592 1 0.879036 0.985786 0.561444
593 1 0.879036 0.852452 0.607204
594 1 0.829036 0.952452 0.607204
595 1 0.929036 0.819119 0.516077
596 1 0.979036 0.919119 0.516077
597 1 0.929036 0.885786 0.561444
598 1 0.979036 0.985786 0.561444
599 1 0.979036 0.852452 0.607204
600 1 0.929036 0.952452 0.607204
603 3 0.508552 0.580126 0.664158
604 3 0.559685 0.579945 0.664148
605 3 0.584824 0.529462 0.664141
606 3 0.559588 0.478445 0.66416
607 3 0.508463 0.478624 0.66415
608 2 0.625776 0.529263 0.664187
610 2 0.57993 0.620983 0.664181
611 2 0.579921 0.437562 0.664199
