# LAMMPS data file written by Ovito Basic 3.0.0-dev791
2494 atoms
3 atom types
0.0 160.5669 xlo xhi
0.0 160.5669 ylo yhi
0.0 160.5669 zlo zhi
 
Masses
 
1 12
2 14
3 1.008
 
Atoms  # charge

1 1 0.0 87.2592999286 80.1759012679 88.8188725357
2 1 0.0 87.5623199286 81.0593772679 89.8797525357
3 1 0.0 86.8295699286 82.3518612679 89.9786725357
4 3 0.0 85.8968199286 82.6595272679 89.0652725357
5 2 0.0 87.7723999286 79.2387182679 88.7246425357
6 1 0.0 85.9198699286 79.7106462679 86.8024325357
7 1 0.0 86.2671599286 80.5507692679 87.8843125357
8 1 0.0 85.5719899286 81.8578252679 88.0410025357
9 3 0.0 84.6296799286 82.2191172679 87.1574525357
10 2 0.0 86.4062999286 78.7642802679 86.6681125357
11 1 0.0 84.5291299286 79.3461162679 84.8008725357
12 1 0.0 84.9196499286 80.1415842679 85.9014625357
13 1 0.0 84.2630399286 81.4600542679 86.1146625357
14 3 0.0 83.3133299286 81.8734532679 85.2624525357
15 2 0.0 84.9880299286 78.3925022679 84.6269025357
16 1 0.0 83.0897099286 79.0823622679 82.8174525357
17 1 0.0 83.5229999286 79.8311862679 83.9346525357
18 1 0.0 82.9060399286 81.1583762679 84.2036125357
19 3 0.0 81.9508899286 81.6229982679 83.3844925357
20 2 0.0 83.5198199286 78.1234322679 82.6037825357
21 1 0.0 81.6044099286 78.9200082679 80.8561425357
22 1 0.0 82.0797299286 79.6204812679 81.9877125357
23 1 0.0 81.5037399286 80.9535452679 82.3118525357
24 3 0.0 80.5451019286 81.4686302679 81.5276325357
25 2 0.0 82.0046099286 77.9577952679 80.6029725357
26 1 0.0 80.0765419286 78.8594892679 78.9213725357
27 1 0.0 80.5928199286 79.5101962679 80.0648625357
28 1 0.0 80.0590459286 80.8463562679 80.4435725357
29 3 0.0 79.0990659286 81.4109932679 79.6962025357
30 2 0.0 80.4457289286 77.8960242679 78.6289025357
31 1 0.0 78.5094449286 78.9008732679 77.0173025357
32 1 0.0 79.0653159286 79.5006762679 78.1701625357
33 1 0.0 78.5751769286 80.8370742679 78.6029725357
34 3 0.0 77.6157749286 81.4502632679 77.8940325357
35 2 0.0 78.8468339286 77.9382602679 76.6862025357
36 1 0.0 76.9067319286 79.0441872679 75.1484325357
37 1 0.0 77.5009129286 79.5918812679 76.3081365357
38 1 0.0 77.0553499286 80.9257242679 76.7940325357
39 3 0.0 76.0986669286 81.5863142679 76.1252895357
40 2 0.0 77.2116109286 78.0844622679 74.7794085357
41 1 0.0 75.2721439286 79.2888982679 73.3189645357
42 1 0.0 75.9031399286 79.7836692679 74.4830335357
43 1 0.0 75.5030969286 81.1121632679 75.0210145357
44 3 0.0 74.5512189286 81.8188902679 74.3940585357
45 2 0.0 75.5438549286 78.3342092679 72.9128735357
46 1 0.0 73.6093569286 79.6345412679 71.5330795357
47 1 0.0 74.2756449286 80.0755192679 72.6989565357
48 1 0.0 73.9218239286 81.3957852679 73.2876535357
49 3 0.0 72.9767839286 82.1472712679 72.7039235357
50 2 0.0 73.8475639286 78.6868692679 71.0910445357
51 1 0.0 72.6221549286 80.4666582679 70.9599085357
52 1 0.0 72.3150589286 81.7760252679 71.5978695357
53 2 0.0 72.0875989286 80.1597072679 70.0609355357
54 2 0.0 71.5566469286 82.4319952679 71.1705105357
55 2 0.0 88.3237999286 80.7908692679 90.6119725357
56 2 0.0 87.0486499286 83.0468022679 90.7893325357
57 1 0.0 70.6891137563 1.8435634791 146.4479427336
58 1 0.0 71.911370411 2.5021149348 146.6257259112
59 1 0.0 71.8849899496 3.852868143 147.0934737583
60 3 0.0 70.775100495 4.5261685231 147.3712661657
61 2 0.0 70.6534134 0.8272619185 146.0982718126
62 2 0.0 72.8481893485 2.0049229005 146.4158185065
63 2 0.0 72.8142019963 4.405086887 147.2464382387
64 1 0.0 68.2306662032 1.9374642702 146.5804515128
65 1 0.0 69.4844417846 2.563347849 146.7456634261
66 1 0.0 69.556431223 3.9646607123 147.2268710872
67 3 0.0 68.4230356707 4.6270187289 147.5018424748
68 2 0.0 68.1585642317 0.9248210272 146.2335337031
69 1 0.0 65.8020012551 2.1001869312 146.7355257691
70 1 0.0 67.0743481199 2.6877599089 146.8867403409
71 1 0.0 67.2004121793 4.0880244852 147.365387267
72 3 0.0 66.0863930112 4.7787226264 147.6493673378
73 2 0.0 65.6972013883 1.0898479623 146.3907208173
74 1 0.0 63.3808359125 2.3325204334 146.9143374577
75 1 0.0 64.6722554959 2.8802901795 147.0510246192
76 1 0.0 64.8472199469 4.2762800238 147.5262068722
77 3 0.0 63.7576394345 5.0013828725 147.8210716437
78 2 0.0 63.2419343406 1.3254993969 146.5720740125
79 1 0.0 60.9668125119 2.6411677894 147.119230968
80 1 0.0 62.2778287588 3.1458342407 147.240231857
81 1 0.0 62.5024979384 4.5363434383 147.7114917112
82 3 0.0 61.4408450787 5.2967640277 148.0174235827
83 2 0.0 60.7919899199 1.6387629719 146.7800211239
84 1 0.0 58.5617818041 3.0309048391 147.3517722865
85 1 0.0 59.89232661 3.4887744926 147.4557980129
86 1 0.0 60.1703240091 4.8717926696 147.9223108407
87 3 0.0 59.1398792441 5.6690077518 148.2396805588
88 2 0.0 58.3486462554 2.0347591622 147.0162871984
89 1 0.0 56.1691050336 3.5090617672 147.6143524654
90 1 0.0 57.5191213547 3.9145599191 147.6995034331
91 1 0.0 57.8545467704 5.2877103287 148.1602564472
92 3 0.0 56.8601067365 6.123886668 148.4896288271
93 2 0.0 55.9139370223 2.5211864906 147.2834342346
94 1 0.0 53.7941011726 4.0869841893 147.910685325
95 1 0.0 55.1632426142 4.4317906893 147.9740927898
96 1 0.0 55.5607243082 5.7920398953 148.4278701744
97 3 0.0 54.609038318 6.6710948911 148.7703030706
98 2 0.0 53.4906699342 3.1106766474 147.585733865
99 1 0.0 51.4473671604 4.7758499991 148.2441969811
100 1 0.0 52.8332862689 5.0534894045 148.2837192287
101 1 0.0 53.2964514312 6.3966532208 148.7289192527
102 3 0.0 52.3939049644 7.321352945 149.0851306733
103 2 0.0 51.0908579476 3.8151650799 147.9268043633
104 1 0.0 49.1415854466 5.5783536587 148.6153053981
105 1 0.0 50.5396899269 5.7883568143 148.630961392
106 1 0.0 51.0699620378 7.1103056168 149.0660992096
107 3 0.0 50.219166884 8.0786188257 149.4352682452
108 2 0.0 48.7334786553 4.6356833223 148.3062356848
109 1 0.0 46.8845902864 6.4883114786 149.0215534421
110 1 0.0 48.2904580087 6.6342816831 149.0147722823
111 1 0.0 48.8867759711 7.9312082682 149.4385752313
112 3 0.0 48.0870656165 8.9384920461 149.8191317049
113 2 0.0 46.4295812976 5.5646869062 148.7209750865
114 1 0.0 44.6791404014 7.4983065867 149.4602627994
115 1 0.0 46.0894489965 7.5826401155 149.4319987543
116 1 0.0 46.7494265973 8.8519536026 149.8436798323
117 3 0.0 46.0003342942 9.8938505625 150.2341309744
118 2 0.0 44.1803098897 6.5948325343 149.1684283079
119 1 0.0 42.5273670138 8.6040302147 149.9298677916
120 1 0.0 43.9393130529 8.6270557571 149.8803524969
121 1 0.0 44.6604733266 9.8663411034 150.2791679469
122 3 0.0 43.9629122801 10.9401299179 150.6785372868
123 2 0.0 41.9859013009 7.7224304009 149.6473238446
124 1 0.0 40.432572064 9.8030966568 150.4293923567
125 1 0.0 41.8432774893 9.7642749583 150.3585649199
126 1 0.0 42.6238316575 10.9712332492 150.7437912089
127 3 0.0 41.9792177127 12.0746765057 151.1512572096
128 2 0.0 39.8491625185 8.9454590247 150.1568355367
129 1 0.0 38.3989801955 11.0932158672 150.9578886792
130 1 0.0 39.8055373447 10.9924069417 150.8658194793
131 1 0.0 40.6438082458 12.1644525654 151.236631831
132 3 0.0 40.0536706182 13.2953912302 151.6513795831
133 2 0.0 37.7746085696 10.2615486167 150.6959753283
134 1 0.0 36.4312109534 12.471546242 151.5141869044
135 1 0.0 37.8306188096 12.3090678808 151.4010923093
136 1 0.0 38.7249235215 13.4437124307 151.7567049084
137 3 0.0 38.190870483 14.5997285435 152.1778373793
138 2 0.0 35.7668621963 11.6678492865 151.263558732
139 1 0.0 34.5334751409 13.9350525094 152.097056014
140 1 0.0 35.9227291382 13.7116056494 151.9633129064
141 1 0.0 36.8714970499 14.8061678252 152.302861788
142 3 0.0 36.394735202 15.9850180519 152.7295456924
143 2 0.0 33.8306304765 13.1610592188 151.8582546341
144 1 0.0 32.7103027151 15.4804129841 152.705172984
145 1 0.0 34.0864017997 15.1966016094 152.5511094938
146 1 0.0 35.0875413517 16.2488733934 152.8739130696
147 3 0.0 34.6694008073 17.4480247553 153.3052287395
148 2 0.0 31.9704536826 14.7377573431 152.4787044412
149 1 0.0 30.9657131279 17.103927616 153.3370922654
150 1 0.0 32.3258527584 16.7607369492 153.163163306
151 1 0.0 33.3772830185 17.7685027631 153.4685429694
152 3 0.0 33.0188768888 18.9854276773 153.9035687212
153 2 0.0 30.1905466441 16.3942489343 153.1234548492
154 1 0.0 29.303729548 18.8019861784 153.9914030654
155 1 0.0 30.6450052394 18.4004002428 153.798067268
156 1 0.0 31.7442433481 19.3616278 154.0854223313
157 3 0.0 31.4464885324 20.5937913389 154.5232437629
158 2 0.0 28.4951360894 18.1265476788 153.790955597
159 1 0.0 29.0475854502 20.1117868038 154.4543544761
160 1 0.0 30.1921448404 21.0247266825 154.7231828812
161 2 0.0 28.0260827273 20.4565133825 154.6150319834
162 2 0.0 30.0148260659 22.039009784 155.0808265025
163 1 0.0 152.0357102057 88.5861653689 42.7066262921
164 1 0.0 153.3577177362 88.2045872574 42.963341002
165 1 0.0 153.7620281588 88.0580153912 44.3268174325
166 3 0.0 152.9647013162 88.2603238843 45.3687856684
167 2 0.0 151.6809171808 88.7103927573 41.6991032919
168 2 0.0 154.0532660294 88.0257627468 42.1551794307
169 2 0.0 154.7834265726 87.7620825571 44.5736933919
170 1 0.0 149.8264435714 89.1927748062 43.6129961039
171 1 0.0 151.166798191 88.8069897805 43.8265326272
172 1 0.0 151.6767332401 88.6299891808 45.2082193017
173 3 0.0 150.8545276519 88.8394380122 46.2469791594
174 2 0.0 149.4396562235 89.3257198563 42.6211704338
175 1 0.0 147.6661255916 89.7841007878 44.5785529015
176 1 0.0 149.0112464994 89.3980030077 44.7475281751
177 1 0.0 149.5700973851 89.2075421245 46.1102997077
178 3 0.0 148.7745246795 89.4089061204 47.1710842856
179 2 0.0 147.2502919171 89.9250074105 43.5998364064
180 1 0.0 145.5347135765 90.365655694 45.6114472837
181 1 0.0 146.884582963 89.9792829118 45.7342004
182 1 0.0 147.4866140622 89.7770266474 47.0765302169
183 3 0.0 146.7242104165 89.9683593014 48.1637457264
184 2 0.0 145.0888723698 90.514741494 44.6473267915
185 1 0.0 143.4340046635 90.9367560312 46.7185245111
186 1 0.0 144.7880527288 90.5503485356 46.7915733035
187 1 0.0 145.4336158038 90.336239511 48.1119836794
188 3 0.0 144.7078466368 90.5165528885 49.2253959028
189 2 0.0 142.956912705 91.0943403642 45.7709000515
190 1 0.0 141.3672005788 91.4964035902 47.903960559
191 1 0.0 142.7241970663 91.1104119392 47.9236183883
192 1 0.0 143.4159513509 90.8837521061 49.2189011298
193 3 0.0 142.7302737811 91.0520606222 50.3589056705
194 2 0.0 140.8571991911 91.662894912 46.9752719995
195 1 0.0 139.3396879632 92.0429274352 49.1739955217
196 1 0.0 140.6978084687 91.657975696 49.1346972168
197 1 0.0 141.4387389744 91.4180283832 50.4011066568
198 3 0.0 140.7982064487 91.5728712703 51.5682954932
199 2 0.0 138.794028183 92.2190354146 48.2674876423
200 1 0.0 137.3599068673 92.5736955234 50.5382546168
201 1 0.0 138.7161991174 92.1908220495 50.4317672871
202 1 0.0 139.5095551424 91.9367500042 51.6647381415
203 3 0.0 138.9215609088 92.0760078573 52.8608042891
204 2 0.0 136.7739582375 92.7606039629 49.6592951055
205 1 0.0 135.441053978 93.0847836035 52.004446697
206 1 0.0 136.7913266037 92.7053122449 51.825051192
207 1 0.0 137.6390864267 92.4366872442 53.0191860075
208 3 0.0 137.1103189347 92.5584223073 54.2448008715
209 2 0.0 134.8117182214 93.2832460066 51.1586916576
210 1 0.0 133.5955337074 93.5726987628 53.5710853346
211 1 0.0 134.9354566142 93.1978412296 53.3198264899
212 1 0.0 135.8376071642 92.9147743751 54.4705130716
213 3 0.0 135.3698034678 93.0185732401 55.7227726845
214 2 0.0 132.9249180179 93.7820740987 52.7604441255
215 1 0.0 131.8285205924 94.0361770424 55.2293797584
216 1 0.0 133.155208132 93.6666310428 54.9113337497
217 1 0.0 134.1095758053 93.3698210071 56.0151040002
218 3 0.0 133.7006552496 93.4563712593 57.2895738991
219 2 0.0 131.1212276699 94.2551663704 54.4533364127
220 1 0.0 130.1401758806 94.4753702968 56.9709786311
221 1 0.0 131.4513637829 94.1117065006 56.5896437889
222 1 0.0 132.454951604 93.8020359762 57.6446907661
223 3 0.0 132.1031085514 93.8719549072 58.9371529347
224 2 0.0 129.3993625253 94.7030783704 56.2296222937
225 1 0.0 128.5310723638 94.8902230303 58.7908592271
226 1 0.0 129.8243108552 94.5331043289 58.3474925672
227 1 0.0 130.8740990551 94.2114786543 59.3522093102
228 3 0.0 130.5793020798 94.2648447812 60.6596329222
229 2 0.0 127.7583657404 95.1261570221 58.0855266405
230 1 0.0 127.0034641401 95.2801930495 60.6855326829
231 1 0.0 128.2759594129 94.9303954915 60.1805466473
232 1 0.0 129.3695902489 94.5975264672 61.1332177482
233 3 0.0 129.1324175745 94.6342295592 62.4528937332
234 2 0.0 126.2001553733 95.523939434 60.0180905872
235 1 0.0 125.5604696644 95.6444650463 62.651311074
236 1 0.0 126.8095290839 95.3027341889 62.0855259748
237 1 0.0 127.9446550994 94.9593359101 62.9841123084
238 3 0.0 127.7658161195 94.9792431762 64.3133680027
239 2 0.0 124.7280892282 95.8955472465 62.0234500348
240 1 0.0 124.2053951253 95.9822015087 64.6838181965
241 1 0.0 125.4283892876 95.6492693468 64.0585395326
242 1 0.0 126.6026876097 95.2960415263 64.9011029131
243 3 0.0 126.4828795704 95.2990198359 66.236983006
244 2 0.0 123.3454760289 96.2401539574 64.0972159207
245 1 0.0 122.9411151401 96.2926996876 66.7786153723
246 1 0.0 124.1355274936 95.9692295003 66.0955424958
247 1 0.0 125.3467177103 95.6068720074 66.8799120875
248 3 0.0 125.2863299112 95.5928813567 68.219765231
249 2 0.0 122.0555554956 96.5569510546 66.2345219371
250 1 0.0 121.7707003167 96.5751905603 68.930877203
251 1 0.0 122.9339896867 96.2618698587 68.1916065316
252 1 0.0 124.1794674646 95.8911618722 68.9162575868
253 3 0.0 124.1789062257 95.8601466149 70.2571067392
254 2 0.0 120.8613762722 96.8451789566 68.430439354
255 1 0.0 120.6966387679 96.829087946 71.1355636826
256 1 0.0 121.8265632554 96.5265087982 70.3420100026
257 1 0.0 123.1037303775 96.1482220566 71.0054084875
258 3 0.0 123.1632085528 96.1001922934 72.3443498955
259 2 0.0 119.7656064188 97.1042033577 70.6798684668
260 1 0.0 119.7214497264 97.0537909242 73.3877248289
261 1 0.0 120.8156760156 96.7625705676 72.5418347613
262 1 0.0 122.1216266723 96.3775585865 73.1427627315
263 3 0.0 122.2411757316 96.3125728037 74.4769506467
264 2 0.0 118.7708315418 97.3334160481 72.9774144673
265 1 0.0 119.903515272 96.9695518084 74.7860335911
266 1 0.0 121.2354298312 96.5786362512 75.3235582563
267 2 0.0 119.0824928056 97.1869314571 75.4692536773
268 2 0.0 121.3955746392 96.5081224285 76.399431185
269 1 0.0 90.5967108116 112.8418423431 114.4705967452
270 1 0.0 90.0198369067 113.800675926 113.6297264425
271 1 0.0 88.8571123854 114.4901799416 114.0952091024
272 3 0.0 88.2864135188 114.2809675031 115.2754165351
273 2 0.0 91.4719898558 112.2950579552 114.168393902
274 2 0.0 90.4403142311 114.0142651062 112.6568599354
275 2 0.0 88.3741554353 115.2459472127 113.4728369328
276 1 0.0 90.5357654402 111.6513167706 116.6268144591
277 1 0.0 89.9867614689 112.6090413062 115.7479875179
278 1 0.0 88.7797099507 113.3744398257 116.144992268
279 3 0.0 88.218622997 113.1476860269 117.3419371411
280 2 0.0 91.4081916113 111.0880906818 116.3572853376
281 1 0.0 90.415326551 110.5116141855 118.779838521
282 1 0.0 89.899154433 111.4587635246 117.8723976857
283 1 0.0 88.6925684513 112.2508793565 118.2223100863
284 3 0.0 88.10692681 112.0486442375 119.4117940644
285 2 0.0 91.2860294904 109.9330915116 118.5393261387
286 1 0.0 90.2348930761 109.4119053565 120.9491882726
287 1 0.0 89.7528355517 110.3479605429 120.0122139686
288 1 0.0 88.5495348586 111.1625065896 120.3184500833
289 3 0.0 87.9340724784 110.9904869688 121.4980773025
290 2 0.0 91.1030174724 108.8179230207 120.7392494768
291 1 0.0 89.988700886 108.3555088971 123.1373768947
292 1 0.0 89.5435956606 109.2790191387 122.1693359793
293 1 0.0 88.3446096155 110.1157666968 122.4308009041
294 3 0.0 87.6985147184 109.9762037948 123.5978588108
295 2 0.0 90.853140719 107.7458167366 122.9600046315
296 1 0.0 89.6726207499 107.3458356934 125.3443650023
297 1 0.0 89.2676438952 108.2548323087 124.344097862
298 1 0.0 88.0746789534 109.1145761782 124.5570090576
299 3 0.0 87.3966518867 109.0098873351 125.7091424621
300 2 0.0 90.5319826509 106.7200876712 125.2021688278
301 1 0.0 89.2803131814 106.3883904254 127.5696465253
302 1 0.0 88.920271563 107.2799635916 126.5353879368
303 1 0.0 87.7353337893 108.1635139589 126.695409241
304 3 0.0 87.0234734899 108.0972539514 127.8291872359
305 2 0.0 90.1328944698 105.7457545171 127.466499118
306 1 0.0 88.8019700394 105.4917662265 129.81234662
307 1 0.0 88.4940273841 106.3614055914 128.7416650556
308 1 0.0 87.3196968108 107.2695340518 128.843811609
309 3 0.0 86.5705700286 107.2471268074 129.9546721662
310 2 0.0 89.6449843039 104.8308226607 129.7547190506
311 1 0.0 88.2278806302 104.6671176895 132.0669647236
312 1 0.0 87.9776309902 105.5102705812 130.9597674775
313 1 0.0 86.8174782472 106.442621802 130.9995277609
314 3 0.0 86.028658147 106.4687436445 132.0828683259
315 2 0.0 89.0578743938 103.9875450657 132.0603459629
316 1 0.0 87.5556234154 103.922243028 134.3234209869
317 1 0.0 87.3635062188 104.7363454747 133.1835215341
318 1 0.0 86.2210751619 105.6914882907 133.1583114214
319 3 0.0 85.3942857768 105.7663886752 134.211201675
320 2 0.0 88.3705247342 103.2260305255 134.367313993
321 1 0.0 86.7904583415 103.2578728517 136.5729148275
322 1 0.0 86.6534082925 104.04257372 135.4053193631
323 1 0.0 85.5319852018 105.0179918917 135.3148082517
324 3 0.0 84.6712311928 105.1389245595 136.336306326
325 2 0.0 87.5893423472 102.5479267644 136.6635998708
326 1 0.0 85.9387476652 102.6715360125 138.8106286717
327 1 0.0 85.8547260579 103.426400023 137.6189902917
328 1 0.0 84.7565639994 104.4195514275 137.464397753
329 3 0.0 83.8655988654 104.5840087928 138.4534758858
330 2 0.0 86.7206372037 101.9499811582 138.9458024675
331 1 0.0 85.0041865475 102.1620729075 141.0333128967
332 1 0.0 84.9729342116 102.8858609875 139.8201650638
333 1 0.0 83.9001295851 103.8942321028 139.6028358203
334 3 0.0 82.9812891296 104.1012593466 140.557813118
335 2 0.0 85.7675878123 101.4304037531 141.2125144289
336 1 0.0 83.9887973073 101.7298927748 143.2373219777
337 1 0.0 84.0108041574 102.4208801106 142.0049804474
338 1 0.0 82.9653501123 103.4423713334 141.7257064948
339 3 0.0 82.0205517683 103.6915254488 142.6446303304
340 2 0.0 84.7319080288 100.9895469413 143.4606395279
341 1 0.0 82.8945217252 101.3759462667 145.4182609148
342 1 0.0 82.9699319292 102.0325944935 144.1691938235
343 1 0.0 81.9540682121 103.065015221 143.8285779147
344 3 0.0 80.9851565225 103.3559383332 144.7094151649
345 2 0.0 83.6156056917 100.6284655726 145.6855051314
346 1 0.0 81.723768883 101.1010836855 147.5712045907
347 1 0.0 81.8523287095 101.7220326494 146.3081025724
348 1 0.0 80.8682128827 102.7632441088 145.9067869498
349 3 0.0 79.8772576673 103.0954920071 146.7473567293
350 2 0.0 82.4210936904 100.3479978402 147.8821746385
351 1 0.0 80.4791148217 100.9058397036 149.6915121776
352 1 0.0 80.660248637 101.4899494465 148.417208942
353 1 0.0 79.7102014596 102.5377635147 147.9556719564
354 3 0.0 78.6991217762 102.9107698965 148.7541912008
355 2 0.0 81.1511769889 100.1487997775 150.0454971049
356 1 0.0 79.1633852429 100.7907769851 151.7741833437
357 1 0.0 79.3965965705 101.3368466568 150.4914699944
358 1 0.0 78.4825348789 102.3890569411 149.9707942796
359 3 0.0 77.4535034637 102.802182195 150.7252878725
360 2 0.0 79.808766541 100.0313868812 152.1704302907
361 1 0.0 77.7797321669 100.7559937952 153.8145286236
362 1 0.0 78.0641955804 101.2631224537 152.5261528937
363 1 0.0 77.1880443434 102.3175288568 151.947412526
364 3 0.0 76.1432274384 102.7700165047 152.6560881703
365 2 0.0 78.3970077355 99.9959573559 154.2521167151
366 1 0.0 76.331231349 100.8016401407 155.807886774
367 1 0.0 76.6661232818 101.2688758871 154.5166824427
368 1 0.0 75.8296524143 102.3231696264 153.8813581416
369 3 0.0 74.7712246929 102.8141619335 154.5425917128
370 2 0.0 76.9192981198 100.0425671406 156.2855952513
371 1 0.0 75.2056249669 101.3540052577 156.4585898828
372 1 0.0 74.410361093 102.406023465 155.7682586626
373 2 0.0 74.9170986629 101.01839475 157.4547021493
374 2 0.0 73.5385439122 102.8443674203 156.2539648472
375 1 0.0 40.9992024109 64.297960853 126.7043740475
376 1 0.0 41.4499073985 63.0136969543 127.0310841034
377 1 0.0 42.6489641845 62.8980951544 127.8010953075
378 3 0.0 43.365535949 63.9308048856 128.2281692383
379 2 0.0 40.1030581706 64.4401636185 126.127211155
380 2 0.0 40.9080547958 62.1345553761 126.7110894136
381 2 0.0 43.0372712529 61.9163286077 128.0788195765
382 1 0.0 41.348852434 66.7321875715 126.8547916364
383 1 0.0 41.7672112793 65.4200189208 127.1616592757
384 1 0.0 43.0003803291 65.201313017 127.9565698715
385 3 0.0 43.7098091929 66.2585405474 128.3783441241
386 2 0.0 40.4598920778 66.9101953949 126.2811543831
387 1 0.0 41.7562210963 69.129579424 127.0432145597
388 1 0.0 42.1386410686 67.8029704129 127.3275346116
389 1 0.0 43.3650195688 67.5306159087 128.1197181187
390 3 0.0 44.0974440269 68.565604719 128.5568678474
391 2 0.0 40.8728490584 69.3398517956 126.4721649373
392 1 0.0 42.2244243162 71.5122061893 127.2709634007
393 1 0.0 42.5695278219 70.1708152037 127.5318722148
394 1 0.0 43.7868193481 69.8502948815 128.3196960793
395 3 0.0 44.5470643725 70.8573751305 128.775461307
396 2 0.0 41.3476855069 71.7560328734 126.7031545516
397 1 0.0 42.7594336607 73.8797200166 127.5418818355
398 1 0.0 43.0642408376 72.5233727487 127.7774825901
399 1 0.0 44.2712922043 72.1540133597 128.5602204511
400 3 0.0 45.059786075 73.1296208116 129.034992073
401 2 0.0 41.8906774602 74.158773091 126.9781144004
402 1 0.0 43.3652799032 76.2297792663 127.8586072552
403 1 0.0 43.6265308605 74.8589308073 128.0667848035
404 1 0.0 44.8211649039 74.4373415971 128.8431662115
405 3 0.0 45.6388611779 75.3780597511 129.3376497777
406 2 0.0 42.5062190984 76.5462643599 127.29991688
407 1 0.0 44.0480912151 78.5582725361 128.2251755722
408 1 0.0 44.2608497189 77.1735656024 128.4027819701
409 1 0.0 45.4405229683 76.6959195958 129.1712680884
410 3 0.0 46.2888178788 77.5967526434 129.686519077
411 2 0.0 43.2009110901 78.9156761309 127.6728498912
412 1 0.0 44.817336017 80.8587209337 128.6478461701
413 1 0.0 44.9742733984 79.4613732773 128.7901504267
414 1 0.0 46.135793038 78.9233883268 129.5488518397
415 3 0.0 47.01742896 79.7772144819 130.0868139166
416 2 0.0 43.9856303829 81.2628913747 128.1040149673
417 1 0.0 45.6817655305 83.1194156297 129.132560272
418 1 0.0 45.7774017545 81.7124409067 129.2359685136
419 1 0.0 46.9166711448 81.1109501132 129.9823518922
420 3 0.0 47.8334003116 81.9111313769 130.5443695616
421 2 0.0 44.8696483409 83.5747136441 128.5997171478
422 1 0.0 46.6423903884 85.3274654339 129.6803547925
423 1 0.0 46.6768091419 83.9154782119 129.7447753462
424 1 0.0 47.7900169109 83.249500014 130.4764334434
425 3 0.0 48.7397603535 83.9936527789 131.06123486
426 2 0.0 45.8518199194 85.8321680623 129.1598010542
427 1 0.0 47.6928856519 87.4757310885 130.2873986453
428 1 0.0 47.6697563196 86.0627494369 130.3150613216
429 1 0.0 48.7536460288 85.3337384731 131.0298681012
430 3 0.0 49.7323627617 86.0230130497 131.6348429807
431 2 0.0 46.9242653536 88.0250621962 129.7795393641
432 1 0.0 48.8263848844 89.5622486552 130.9493572147
433 1 0.0 48.7481917486 88.1513236833 130.941748612
434 1 0.0 49.8007250864 87.361924572 131.6383339177
435 3 0.0 50.8046083648 87.9972423293 132.2610138984
436 2 0.0 48.0803600386 90.1530294608 130.4546961363
437 1 0.0 50.0388390627 91.5853520479 131.6637029503
438 1 0.0 49.9061761734 90.1792364052 131.6211246131
439 1 0.0 50.9254852954 89.3321649384 132.2982013569
440 3 0.0 51.9520259739 89.9129037682 132.9370020679
441 2 0.0 49.3168076907 92.2162221548 131.1831740356
442 1 0.0 51.3277815674 93.5420086308 132.4289305253
443 1 0.0 51.1404814357 92.1436204126 132.3511970122
444 1 0.0 52.1247248596 91.2408962462 133.0075249647
445 3 0.0 53.1717859501 91.7658837524 133.6611256768
446 2 0.0 50.6315169839 94.2120615693 131.9636984162
447 1 0.0 52.6907228843 95.4282593161 133.2435845292
448 1 0.0 52.448976639 94.0405039085 133.1307312061
449 1 0.0 53.3960463453 93.0840659015 133.7649048085
450 3 0.0 54.4615516507 93.5520083126 134.4320095415
451 2 0.0 52.0218965098 96.1363082782 132.7947561719
452 1 0.0 54.1246458141 97.239809909 134.1058649989
453 1 0.0 53.8290638011 95.8656369997 133.9581759935
454 1 0.0 54.7369372862 94.8574196736 134.5688502529
455 3 0.0 55.8185702953 95.2669721022 135.2480227648
456 2 0.0 53.4849240809 97.9846654566 133.6745311779
457 1 0.0 55.6264084803 98.9727926024 135.0138672492
458 1 0.0 55.2779342485 97.6151159511 134.8318721739
459 1 0.0 56.1444076188 96.5569622345 135.4175811121
460 3 0.0 57.2400530028 96.9071604242 136.1074878385
461 2 0.0 55.0171651546 99.7528002458 134.6009592916
462 1 0.0 57.1925761489 100.6230529242 135.965530343
463 1 0.0 56.792070509 99.2847925614 135.7496887813
464 1 0.0 57.6154160128 98.1790135291 136.309254123
465 3 0.0 58.7226842156 98.4688013631 137.0084099346
466 2 0.0 56.6150960541 101.4365583315 135.5719217998
467 1 0.0 58.8194372682 102.1869833058 136.9585858431
468 1 0.0 58.3680766351 100.8708239524 136.7095696461
469 1 0.0 59.1465572765 99.7197210743 137.2418142527
470 3 0.0 60.2630899887 99.9482572522 137.9487332887
471 2 0.0 58.2749891447 103.0321373042 136.5851439942
472 1 0.0 60.5033585314 103.6609631589 137.9908200684
473 1 0.0 60.0023290766 102.3696890233 137.709304409
474 1 0.0 60.7344141573 101.1759440546 138.2131696221
475 3 0.0 61.8578674094 101.3425831634 138.926371361
476 2 0.0 59.9928562893 104.5357536595 137.6381888494
477 1 0.0 61.691054743 103.7780828026 138.7465794109
478 1 0.0 62.3754642909 102.5443515043 139.2211684813
479 2 0.0 62.1070672475 104.7574222091 138.9831156897
480 2 0.0 63.292912234 102.6141354154 139.8055832269
481 1 0.0 31.1298314469 19.2116705578 111.249532864
482 1 0.0 32.2619605747 19.99073758 110.983927102
483 1 0.0 32.9269071255 20.6082521259 112.0887076579
484 3 0.0 32.5409415869 20.4916094892 113.3535324377
485 2 0.0 30.5931916159 18.7255569556 110.4544703583
486 2 0.0 32.6236566468 20.1222431901 109.9735939961
487 2 0.0 33.8136357281 21.2244978947 111.9282949435
488 1 0.0 29.5691030952 18.3038563033 112.9259399143
489 1 0.0 30.7053495178 19.0799412827 112.6135065439
490 1 0.0 31.460175648 19.7590250864 113.6949425031
491 3 0.0 31.0533093353 19.6281984114 114.9662634967
492 2 0.0 29.0105045072 17.8053501166 112.1575284374
493 1 0.0 28.0626155178 17.4395511058 114.6383685477
494 1 0.0 29.1916574376 18.2050231023 114.2829935887
495 1 0.0 29.9813278238 18.9045457884 115.3283761041
496 3 0.0 29.6014536783 18.7943844404 116.6099015313
497 2 0.0 27.4837822914 16.929470222 113.8930982029
498 1 0.0 26.5961859484 16.6105026301 116.4019606306
499 1 0.0 27.7176016135 17.3648582231 116.0021179608
500 1 0.0 28.5371022017 18.0813177933 117.0122183758
501 3 0.0 28.1905855955 17.9966076472 118.30553021
502 2 0.0 25.9967262351 16.0887613209 115.6815695291
503 1 0.0 25.1729753229 15.8196786161 118.2223513618
504 1 0.0 26.2854425277 16.5615853149 117.7750436261
505 1 0.0 27.1346847315 17.2947379397 118.7483641422
506 3 0.0 26.8242751621 17.2372479046 120.051929013
507 2 0.0 24.5523476109 15.2861827846 117.5290656227
508 1 0.0 23.7966004245 15.0700202778 120.1021778572
509 1 0.0 24.8981986056 15.7977451573 119.604469711
510 1 0.0 25.7785491733 16.5480478625 120.5370386249
511 3 0.0 25.5071342931 16.519737554 121.8499073648
512 2 0.0 23.1540740318 14.5246037958 119.438880102
513 1 0.0 22.4729589301 14.3662379064 122.0451518905
514 1 0.0 23.5608516296 15.0771529273 121.4926007045
515 1 0.0 24.4737751556 15.8451035655 122.3798256196
516 3 0.0 24.2455947251 15.8488290254 123.700623798
517 2 0.0 21.8071137633 13.808398594 121.4158819429
518 1 0.0 21.211267444 13.7156559076 124.0569492179
519 1 0.0 22.2810203079 14.4057657201 123.4430782437
520 1 0.0 23.2280262478 15.1917327282 124.2795106236
521 3 0.0 23.0494595389 15.2319397535 125.6069900109
522 2 0.0 20.5196979075 13.1445102173 123.4684217669
523 1 0.0 20.0241002098 13.1275728516 126.1396683373
524 1 0.0 21.0709072086 13.7929597145 125.4607921683
525 1 0.0 22.0522492185 14.5964077655 126.2406980314
526 3 0.0 21.9288853378 14.6768389597 127.5729361696
527 2 0.0 19.3057014646 12.5431448711 125.5982816131
528 1 0.0 18.9211163137 12.6081471186 128.2872219047
529 1 0.0 19.9417325344 13.2468194468 127.5459508608
530 1 0.0 20.9562559738 14.066380419 128.2650781598
531 3 0.0 20.8887687763 14.1871107472 129.5987341526
532 2 0.0 18.1780633886 12.0121226972 127.7939371557
533 1 0.0 17.9043160592 12.1575381429 130.4895290255
534 1 0.0 18.897671549 12.7694563841 129.6916454034
535 1 0.0 19.9427591398 13.6029506432 130.3476193867
536 3 0.0 19.9283723257 13.7615601919 131.6793913344
537 2 0.0 17.1402034104 11.5522115717 130.0421203973
538 1 0.0 16.9717556826 11.7733690612 132.7388201303
539 1 0.0 17.9368813951 12.3583666302 131.8884134411
540 1 0.0 19.0096711783 13.2036596681 132.4807057956
541 3 0.0 19.045874417 13.3979468395 133.8073867929
542 2 0.0 16.1891538714 11.1604484057 132.3361698001
543 1 0.0 16.1226597314 11.4544561491 135.0302417245
544 1 0.0 17.0578905526 12.011598315 134.1294035172
545 1 0.0 18.1555356012 12.8666156578 134.6576787899
546 3 0.0 18.2415524435 13.0956686468 135.9764833745
547 2 0.0 15.3232149588 10.8352019375 134.6729649287
548 1 0.0 15.3579713642 11.2009796577 137.3597164238
549 1 0.0 16.2611579284 11.7288967276 136.4098895739
550 1 0.0 17.3813256487 12.5918790619 136.8734606994
551 3 0.0 17.5169584194 12.8552002758 138.1816687828
552 2 0.0 14.5431926825 10.5766276431 137.0490453958
553 1 0.0 14.6793078899 11.013500625 139.7226551298
554 1 0.0 15.5484777631 11.5110019921 138.72562037
555 1 0.0 16.6887653749 12.3800984761 139.1234976272
556 3 0.0 16.8739193773 12.6772806637 140.4183725723
557 2 0.0 13.8508534351 10.3853624361 139.4595684932