# LAMMPS data file written by Ovito Basic 3.0.0-dev791
891 atoms
5 atom types
0.0 16.9909992218 xlo xhi
0.0 16.9909992218 ylo yhi
0.0 150.0 zlo zhi

Atoms  # charge

1 1 0.0 6.406459332 0.134229973 35.584537506
2 1 0.0 6.406459332 0.134229973 52.575534821
3 1 0.0 6.261349678 15.277289391 36.681308746
4 1 0.0 6.261349678 15.277289391 53.672302246
5 1 0.0 6.900039673 1.452729821 35.090946198
6 1 0.0 6.900039673 1.452729821 52.081947327
7 1 0.0 0.134229973 10.584539413 31.406459808
8 1 0.0 0.134229973 10.584539413 48.397457123
9 1 0.0 15.277289391 10.72964859 30.309690475
10 1 0.0 15.277289391 10.72964859 47.300685883
11 1 0.0 1.452729821 10.090949059 31.900039673
12 1 0.0 1.452729821 10.090949059 48.891036987
13 1 0.0 10.584539413 16.856767654 35.584537506
14 1 0.0 10.584539413 16.856767654 52.575534821
15 1 0.0 10.72964859 1.713709712 36.681308746
16 1 0.0 10.72964859 1.713709712 53.672302246
17 1 0.0 10.090949059 15.538269043 35.090946198
18 1 0.0 10.090949059 15.538269043 52.081947327
19 1 0.0 16.856767654 6.406459332 31.406459808
20 1 0.0 16.856767654 6.406459332 48.397457123
21 1 0.0 1.713709712 6.261349678 30.309690475
22 1 0.0 1.713709712 6.261349678 47.300685883
23 1 0.0 15.538269043 6.900039673 31.900039673
24 1 0.0 15.538269043 6.900039673 48.891036987
25 1 0.0 6.406459332 16.856767654 31.406459808
26 1 0.0 6.406459332 16.856767654 48.397457123
27 1 0.0 6.261349678 1.713709712 30.309690475
28 1 0.0 6.261349678 1.713709712 47.300685883
29 1 0.0 6.900039673 15.538269043 31.900039673
30 1 0.0 6.900039673 15.538269043 48.891036987
31 1 0.0 16.856767654 10.584539413 35.584537506
32 1 0.0 16.856767654 10.584539413 52.575534821
33 1 0.0 1.713709712 10.72964859 36.681308746
34 1 0.0 1.713709712 10.72964859 53.672302246
35 1 0.0 15.538269043 10.090949059 35.090946198
36 1 0.0 15.538269043 10.090949059 52.081947327
37 1 0.0 10.584539413 0.134229973 31.406459808
38 1 0.0 10.584539413 0.134229973 48.397457123
39 1 0.0 10.72964859 15.277289391 30.309690475
40 1 0.0 10.72964859 15.277289391 47.300685883
41 1 0.0 10.090949059 1.452729821 31.900039673
42 1 0.0 10.090949059 1.452729821 48.891036987
43 1 0.0 0.134229973 6.406459332 35.584537506
44 1 0.0 0.134229973 6.406459332 52.575534821
45 1 0.0 15.277289391 6.261349678 36.681308746
46 1 0.0 15.277289391 6.261349678 53.672302246
47 1 0.0 1.452729821 6.900039673 35.090946198
48 1 0.0 1.452729821 6.900039673 52.081947327
49 1 0.0 10.584539413 6.406459332 25.134227753
50 1 0.0 10.584539413 6.406459332 42.125225067
51 1 0.0 11.681308746 6.261349678 40.277282715
52 1 0.0 11.681308746 6.261349678 57.268287659
53 1 0.0 10.090949059 6.900039673 26.452728271
54 1 0.0 10.090949059 6.900039673 43.443725586
55 1 0.0 6.406459332 6.406459332 41.856765747
56 1 0.0 6.406459332 6.406459332 58.847763062
57 1 0.0 6.261349678 5.309689045 26.713708878
58 1 0.0 6.261349678 5.309689045 43.704704285
59 1 0.0 6.900039673 6.900039673 40.538261414
60 1 0.0 6.900039673 6.900039673 57.529266357
61 1 0.0 6.406459332 10.584539413 25.134227753
62 1 0.0 6.406459332 10.584539413 42.125225067
63 1 0.0 5.309689045 10.72964859 40.277282715
64 1 0.0 5.309689045 10.72964859 57.268287659
65 1 0.0 6.900039673 10.090949059 26.452728271
66 1 0.0 6.900039673 10.090949059 43.443725586
67 1 0.0 10.584539413 10.584539413 41.856765747
68 1 0.0 10.584539413 10.584539413 58.847763062
69 1 0.0 10.72964859 11.681308746 26.713708878
70 1 0.0 10.72964859 11.681308746 43.704704285
71 1 0.0 10.090949059 10.090949059 40.538261414
72 1 0.0 10.090949059 10.090949059 57.529266357
73 1 0.0 11.681308746 10.72964859 26.713708878
74 1 0.0 11.681308746 10.72964859 43.704704285
75 1 0.0 10.72964859 5.309689045 40.277282715
76 1 0.0 10.72964859 5.309689045 57.268287659
77 1 0.0 5.309689045 6.261349678 26.713708878
78 1 0.0 5.309689045 6.261349678 43.704704285
79 1 0.0 6.261349678 11.681308746 40.277282715
80 1 0.0 6.261349678 11.681308746 57.268287659
81 1 0.0 15.277289391 11.681308746 31.261348724
82 1 0.0 15.277289391 11.681308746 48.252346039
83 1 0.0 15.277289391 5.309689045 35.729644775
84 1 0.0 15.277289391 5.309689045 52.720645905
85 1 0.0 5.309689045 1.713709712 31.261348724
86 1 0.0 5.309689045 1.713709712 48.252346039
87 1 0.0 1.713709712 11.681308746 35.729644775
88 1 0.0 1.713709712 11.681308746 52.720645905
89 1 0.0 11.681308746 15.277289391 31.261348724
90 1 0.0 11.681308746 15.277289391 48.252346039
91 1 0.0 1.713709712 5.309689045 31.261348724
92 1 0.0 1.713709712 5.309689045 48.252346039
93 1 0.0 5.309689045 15.277289391 35.729644775
94 1 0.0 5.309689045 15.277289391 52.720645905
95 1 0.0 11.681308746 1.713709712 35.729644775
96 1 0.0 11.681308746 1.713709712 52.720645905
97 1 0.0 14.901959419 8.629729271 27.089038849
98 1 0.0 14.901959419 8.629729271 44.080036163
99 1 0.0 14.756849289 6.781789303 28.185808182
100 1 0.0 14.756849289 6.781789303 45.176807404
101 1 0.0 15.395539284 9.948228836 26.59544754
102 1 0.0 15.395539284 9.948228836 43.586444855
103 1 0.0 8.629729271 2.089039803 39.901954651
104 1 0.0 8.629729271 2.089039803 56.892944336
105 1 0.0 6.781789303 2.234149694 38.805183411
106 1 0.0 6.781789303 2.234149694 55.79618454
107 1 0.0 9.948228836 1.595449924 40.395534515
108 1 0.0 9.948228836 1.595449924 57.386535645
109 1 0.0 2.089039803 8.361268997 27.089038849
110 1 0.0 2.089039803 8.361268997 44.080036163
111 1 0.0 2.234149694 10.209209442 28.185808182
112 1 0.0 2.234149694 10.209209442 45.176807404
113 1 0.0 1.595449924 7.042769432 26.59544754
114 1 0.0 1.595449924 7.042769432 43.586444855
115 1 0.0 8.361268997 14.901959419 39.901954651
116 1 0.0 8.361268997 14.901959419 56.892944336
117 1 0.0 10.209209442 14.756849289 38.805183411
118 1 0.0 10.209209442 14.756849289 55.79618454
119 1 0.0 7.042769432 15.395539284 40.395534515
120 1 0.0 7.042769432 15.395539284 57.386535645
121 1 0.0 14.901959419 8.361268997 39.901954651
122 1 0.0 14.901959419 8.361268997 56.892944336
123 1 0.0 14.756849289 10.209209442 38.805183411
124 1 0.0 14.756849289 10.209209442 55.79618454
125 1 0.0 15.395539284 7.042769432 40.395534515
126 1 0.0 15.395539284 7.042769432 57.386535645
127 1 0.0 8.361268997 2.089039803 27.089038849
128 1 0.0 8.361268997 2.089039803 44.080036163
129 1 0.0 10.209209442 2.234149694 28.185808182
130 1 0.0 10.209209442 2.234149694 45.176807404
131 1 0.0 7.042769432 1.595449924 26.59544754
132 1 0.0 7.042769432 1.595449924 43.586444855
133 1 0.0 2.089039803 8.629729271 39.901954651
134 1 0.0 2.089039803 8.629729271 56.892944336
135 1 0.0 2.234149694 6.781789303 38.805183411
136 1 0.0 2.234149694 6.781789303 55.79618454
137 1 0.0 1.595449924 9.948228836 40.395534515
138 1 0.0 1.595449924 9.948228836 57.386535645
139 1 0.0 8.629729271 14.901959419 27.089038849
140 1 0.0 8.629729271 14.901959419 44.080036163
141 1 0.0 6.781789303 14.756849289 28.185808182
142 1 0.0 6.781789303 14.756849289 45.176807404
143 1 0.0 9.948228836 15.395539284 26.59544754
144 1 0.0 9.948228836 15.395539284 43.586444855
145 1 0.0 2.089039803 14.901959419 33.629730225
146 1 0.0 2.089039803 14.901959419 50.620727539
147 1 0.0 3.185809851 14.756849289 31.78178978
148 1 0.0 3.185809851 14.756849289 48.772785187
149 1 0.0 1.595449924 15.395539284 34.948230743
150 1 0.0 1.595449924 15.395539284 51.939224243
151 1 0.0 14.901959419 14.901959419 33.361274719
152 1 0.0 14.901959419 14.901959419 50.352264404
153 1 0.0 14.756849289 13.805189133 35.209209442
154 1 0.0 14.756849289 13.805189133 52.200202942
155 1 0.0 15.395539284 15.395539284 32.042770386
156 1 0.0 15.395539284 15.395539284 49.0337677
157 1 0.0 14.901959419 2.089039803 33.629730225
158 1 0.0 14.901959419 2.089039803 50.620727539
159 1 0.0 13.805189133 2.234149694 31.78178978
160 1 0.0 13.805189133 2.234149694 48.772785187
161 1 0.0 15.395539284 1.595449924 34.948230743
162 1 0.0 15.395539284 1.595449924 51.939224243
163 1 0.0 2.089039803 2.089039803 33.361274719
164 1 0.0 2.089039803 2.089039803 50.352264404
165 1 0.0 2.234149694 3.185809851 35.209209442
166 1 0.0 2.234149694 3.185809851 52.200202942
167 1 0.0 1.595449924 1.595449924 32.042770386
168 1 0.0 1.595449924 1.595449924 49.0337677
169 1 0.0 3.185809851 2.234149694 35.209209442
170 1 0.0 3.185809851 2.234149694 52.200202942
171 1 0.0 2.234149694 13.805189133 31.78178978
172 1 0.0 2.234149694 13.805189133 48.772785187
173 1 0.0 13.805189133 14.756849289 35.209209442
174 1 0.0 13.805189133 14.756849289 52.200202942
175 1 0.0 14.756849289 3.185809851 31.78178978
176 1 0.0 14.756849289 3.185809851 48.772785187
177 1 0.0 6.781789303 3.185809851 39.756847382
178 1 0.0 6.781789303 3.185809851 56.747844696
179 1 0.0 6.781789303 13.805189133 27.234146118
180 1 0.0 6.781789303 13.805189133 44.225147247
181 1 0.0 13.805189133 10.209209442 39.756847382
182 1 0.0 13.805189133 10.209209442 56.747844696
183 1 0.0 10.209209442 3.185809851 27.234146118
184 1 0.0 10.209209442 3.185809851 44.225147247
185 1 0.0 3.185809851 6.781789303 39.756847382
186 1 0.0 3.185809851 6.781789303 56.747844696
187 1 0.0 10.209209442 13.805189133 39.756847382
188 1 0.0 10.209209442 13.805189133 56.747844696
189 1 0.0 13.805189133 6.781789303 27.234146118
190 1 0.0 13.805189133 6.781789303 44.225147247
191 1 0.0 3.185809851 10.209209442 27.234146118
192 1 0.0 3.185809851 10.209209442 44.225147247
193 2 0.0 6.417499542 14.593568802 37.291290283
194 2 0.0 6.417499542 14.593568802 54.282287598
195 2 0.0 14.593568802 10.573498726 29.699708939
196 2 0.0 14.593568802 10.573498726 46.690704346
197 2 0.0 10.573498726 2.397429705 37.291290283
198 2 0.0 10.573498726 2.397429705 54.282287598
199 2 0.0 9.197228432 15.635119438 34.757926941
200 2 0.0 9.197228432 15.635119438 51.74892807
201 2 0.0 10.096049309 14.9044981 35.81306839
202 2 0.0 10.096049309 14.9044981 52.80406189
203 2 0.0 10.663549423 15.225628853 34.387527466
204 2 0.0 10.663549423 15.225628853 51.378520966
205 2 0.0 2.397429705 6.417499542 29.699708939
206 2 0.0 2.397429705 6.417499542 46.690704346
207 2 0.0 15.635119438 7.79376936 32.233070374
208 2 0.0 15.635119438 7.79376936 49.224063873
209 2 0.0 14.9044981 6.894949436 31.17792511
210 2 0.0 14.9044981 6.894949436 48.168926239
211 2 0.0 15.225628853 6.327449322 32.603466034
212 2 0.0 15.225628853 6.327449322 49.594463348
213 2 0.0 6.417499542 2.397429705 29.699708939
214 2 0.0 6.417499542 2.397429705 46.690704346
215 2 0.0 2.397429705 10.573498726 37.291290283
216 2 0.0 2.397429705 10.573498726 54.282287598
217 2 0.0 10.573498726 14.593568802 29.699708939
218 2 0.0 10.573498726 14.593568802 46.690704346
219 2 0.0 9.197228432 1.355879903 32.233070374
220 2 0.0 9.197228432 1.355879903 49.224063873
221 2 0.0 10.096049309 2.086489677 31.17792511
222 2 0.0 10.096049309 2.086489677 48.168926239
223 2 0.0 10.663549423 1.765359879 32.603466034
224 2 0.0 10.663549423 1.765359879 49.594463348
225 2 0.0 14.593568802 6.417499542 37.291290283
226 2 0.0 14.593568802 6.417499542 54.282287598
227 2 0.0 1.355879903 7.79376936 34.757926941
228 2 0.0 1.355879903 7.79376936 51.74892807
229 2 0.0 2.086489677 6.894949436 35.81306839
230 2 0.0 2.086489677 6.894949436 52.80406189
231 2 0.0 1.765359879 6.327449322 34.387527466
232 2 0.0 1.765359879 6.327449322 51.378520966
233 2 0.0 12.291288376 6.417499542 39.593566895
234 2 0.0 12.291288376 6.417499542 56.584564209
235 2 0.0 6.417499542 4.699709415 27.397428513
236 2 0.0 6.417499542 4.699709415 44.388427734
237 2 0.0 7.79376936 7.23306942 40.635116577
238 2 0.0 7.79376936 7.23306942 57.626117706
239 2 0.0 6.894949436 6.177929401 39.904491425
240 2 0.0 6.894949436 6.177929401 56.895496368
241 2 0.0 6.327449322 7.603469372 40.225624084
242 2 0.0 6.327449322 7.603469372 57.216625214
243 2 0.0 4.699709415 10.573498726 39.593566895
244 2 0.0 4.699709415 10.573498726 56.584564209
245 2 0.0 10.573498726 12.291288376 27.397428513
246 2 0.0 10.573498726 12.291288376 44.388427734
247 2 0.0 9.197228432 9.757928848 40.635116577
248 2 0.0 9.197228432 9.757928848 57.626117706
249 2 0.0 10.096049309 10.813069344 39.904491425
250 2 0.0 10.096049309 10.813069344 56.895496368
251 2 0.0 10.663549423 9.387529373 40.225624084
252 2 0.0 10.663549423 9.387529373 57.216625214
253 2 0.0 12.291288376 10.573498726 27.397428513
254 2 0.0 12.291288376 10.573498726 44.388427734
255 2 0.0 10.573498726 4.699709415 39.593566895
256 2 0.0 10.573498726 4.699709415 56.584564209
257 2 0.0 9.197228432 7.23306942 26.355876923
258 2 0.0 9.197228432 7.23306942 43.346874237
259 2 0.0 10.096049309 6.177929401 27.086488724
260 2 0.0 10.096049309 6.177929401 44.077487946
261 2 0.0 10.663549423 7.603469372 26.765356064
262 2 0.0 10.663549423 7.603469372 43.756355286
263 2 0.0 4.699709415 6.417499542 27.397428513
264 2 0.0 4.699709415 6.417499542 44.388427734
265 2 0.0 6.417499542 12.291288376 39.593566895
266 2 0.0 6.417499542 12.291288376 56.584564209
267 2 0.0 7.79376936 9.757928848 26.355876923
268 2 0.0 7.79376936 9.757928848 43.346874237
269 2 0.0 6.894949436 10.813069344 27.086488724
270 2 0.0 6.894949436 10.813069344 44.077487946
271 2 0.0 6.327449322 9.387529373 26.765356064
272 2 0.0 6.327449322 9.387529373 43.756355286
273 2 0.0 14.593568802 12.291288376 31.417499542
274 2 0.0 14.593568802 12.291288376 48.408493042
275 2 0.0 1.355879903 9.757928848 32.793766022
276 2 0.0 1.355879903 9.757928848 49.784767151
277 2 0.0 2.086489677 10.813069344 31.894948959
278 2 0.0 2.086489677 10.813069344 48.885940552
279 2 0.0 1.765359879 9.387529373 31.327447891
280 2 0.0 1.765359879 9.387529373 48.318447113
281 2 0.0 14.593568802 4.699709415 35.573497772
282 2 0.0 14.593568802 4.699709415 52.564491272
283 2 0.0 4.699709415 2.397429705 31.417499542
284 2 0.0 4.699709415 2.397429705 48.408493042
285 2 0.0 7.23306942 15.635119438 32.793766022
286 2 0.0 7.23306942 15.635119438 49.784767151
287 2 0.0 6.177929401 14.9044981 31.894948959
288 2 0.0 6.177929401 14.9044981 48.885940552
289 2 0.0 7.603469372 15.225628853 31.327447891
290 2 0.0 7.603469372 15.225628853 48.318447113
291 2 0.0 2.397429705 12.291288376 35.573497772
292 2 0.0 2.397429705 12.291288376 52.564491272
293 2 0.0 15.635119438 9.757928848 34.197227478
294 2 0.0 15.635119438 9.757928848 51.188224792
295 2 0.0 14.9044981 10.813069344 35.096046448
296 2 0.0 14.9044981 10.813069344 52.087047577
297 2 0.0 15.225628853 9.387529373 35.663551331
298 2 0.0 15.225628853 9.387529373 52.65454483
299 2 0.0 12.291288376 14.593568802 31.417499542
300 2 0.0 12.291288376 14.593568802 48.408493042
301 2 0.0 2.397429705 4.699709415 31.417499542
302 2 0.0 2.397429705 4.699709415 48.408493042
303 2 0.0 4.699709415 14.593568802 35.573497772
304 2 0.0 4.699709415 14.593568802 52.564491272
305 2 0.0 7.23306942 1.355879903 34.197227478
306 2 0.0 7.23306942 1.355879903 51.188224792
307 2 0.0 6.177929401 2.086489677 35.096046448
308 2 0.0 6.177929401 2.086489677 52.087047577
309 2 0.0 7.603469372 1.765359879 35.663551331
310 2 0.0 7.603469372 1.765359879 52.65454483
311 2 0.0 12.291288376 2.397429705 35.573497772
312 2 0.0 12.291288376 2.397429705 52.564491272
313 2 0.0 14.912999153 6.098069668 28.795787811
314 2 0.0 14.912999153 6.098069668 45.786781311
315 2 0.0 16.289268494 9.851379395 26.262426376
316 2 0.0 16.289268494 9.851379395 43.253421783
317 2 0.0 15.39044857 10.581989288 27.317567825
318 2 0.0 15.39044857 10.581989288 44.308567047
319 2 0.0 14.822949409 10.260859489 25.892026901
320 2 0.0 14.822949409 10.260859489 42.883022308
321 2 0.0 6.098069668 2.07799983 38.195205688
322 2 0.0 6.098069668 2.07799983 55.186203003
323 2 0.0 2.07799983 10.892929077 28.795787811
324 2 0.0 2.07799983 10.892929077 45.786781311
325 2 0.0 0.701729953 7.13961935 26.262426376
326 2 0.0 0.701729953 7.13961935 43.253421783
327 2 0.0 1.600549936 6.409009457 27.317567825
328 2 0.0 1.600549936 6.409009457 44.308567047
329 2 0.0 2.168049812 6.730129242 25.892026901
330 2 0.0 2.168049812 6.730129242 42.883022308
331 2 0.0 10.892929077 14.912999153 38.195205688
332 2 0.0 10.892929077 14.912999153 55.186203003
333 2 0.0 7.13961935 16.289268494 40.728565216
334 2 0.0 7.13961935 16.289268494 57.719566345
335 2 0.0 6.409009457 15.39044857 39.673423767
336 2 0.0 6.409009457 15.39044857 56.664424896
337 2 0.0 6.730129242 14.822949409 41.098964691
338 2 0.0 6.730129242 14.822949409 58.08996582
339 2 0.0 14.912999153 10.892929077 38.195205688
340 2 0.0 14.912999153 10.892929077 55.186203003
341 2 0.0 16.289268494 7.13961935 40.728565216
342 2 0.0 16.289268494 7.13961935 57.719566345
343 2 0.0 15.39044857 6.409009457 39.673423767
344 2 0.0 15.39044857 6.409009457 56.664424896
345 2 0.0 14.822949409 6.730129242 41.098964691
346 2 0.0 14.822949409 6.730129242 58.08996582
347 2 0.0 10.892929077 2.07799983 28.795787811
348 2 0.0 10.892929077 2.07799983 45.786781311
349 2 0.0 2.07799983 6.098069668 38.195205688
350 2 0.0 2.07799983 6.098069668 55.186203003
351 2 0.0 6.098069668 14.912999153 28.795787811
352 2 0.0 6.098069668 14.912999153 45.786781311
353 2 0.0 3.795789719 14.912999153 31.098070145
354 2 0.0 3.795789719 14.912999153 48.089065552
355 2 0.0 14.912999153 13.195209503 35.892929077
356 2 0.0 14.912999153 13.195209503 52.883926392
357 2 0.0 16.289268494 15.728569031 32.13961792
358 2 0.0 16.289268494 15.728569031 49.13061142
359 2 0.0 15.39044857 14.673429489 31.409009933
360 2 0.0 15.39044857 14.673429489 48.399997711
361 2 0.0 14.822949409 16.098970413 31.730127335
362 2 0.0 14.822949409 16.098970413 48.721122742
363 2 0.0 13.195209503 2.07799983 31.098070145
364 2 0.0 13.195209503 2.07799983 48.089065552
365 2 0.0 2.07799983 3.795789719 35.892929077
366 2 0.0 2.07799983 3.795789719 52.883926392
367 2 0.0 0.701729953 1.262429833 32.13961792
368 2 0.0 0.701729953 1.262429833 49.13061142
369 2 0.0 1.600549936 2.317569733 31.409009933
370 2 0.0 1.600549936 2.317569733 48.399997711
371 2 0.0 2.168049812 0.892029941 31.730127335
372 2 0.0 2.168049812 0.892029941 48.721122742
373 2 0.0 3.795789719 2.07799983 35.892929077
374 2 0.0 3.795789719 2.07799983 52.883926392
375 2 0.0 2.07799983 13.195209503 31.098070145
376 2 0.0 2.07799983 13.195209503 48.089065552
377 2 0.0 0.701729953 15.728569031 34.85137558
378 2 0.0 0.701729953 15.728569031 51.842376709
379 2 0.0 1.600549936 14.673429489 35.581989288
380 2 0.0 1.600549936 14.673429489 52.572986603
381 2 0.0 2.168049812 16.098970413 35.260852814
382 2 0.0 2.168049812 16.098970413 52.251857758
383 2 0.0 13.195209503 14.912999153 35.892929077
384 2 0.0 13.195209503 14.912999153 52.883926392
385 2 0.0 14.912999153 3.795789719 31.098070145
386 2 0.0 14.912999153 3.795789719 48.089065552
387 2 0.0 16.289268494 1.262429833 34.85137558
388 2 0.0 16.289268494 1.262429833 51.842376709
389 2 0.0 15.39044857 2.317569733 35.581989288
390 2 0.0 15.39044857 2.317569733 52.572986603
391 2 0.0 14.822949409 0.892029941 35.260852814
392 2 0.0 14.822949409 0.892029941 52.251857758
393 2 0.0 6.098069668 3.795789719 39.91299057
394 2 0.0 6.098069668 3.795789719 56.903995514
395 2 0.0 9.851379395 1.262429833 41.289264679
396 2 0.0 9.851379395 1.262429833 58.280265808
397 2 0.0 10.581989288 2.317569733 40.390445709
398 2 0.0 10.581989288 2.317569733 57.381439209
399 2 0.0 10.260859489 0.892029941 39.822944641
400 2 0.0 10.260859489 0.892029941 56.813941956
401 2 0.0 6.098069668 13.195209503 27.077997208
402 2 0.0 6.098069668 13.195209503 44.068992615
403 2 0.0 9.851379395 15.728569031 25.701728821
404 2 0.0 9.851379395 15.728569031 42.692726135
405 2 0.0 10.581989288 14.673429489 26.600545883
406 2 0.0 10.581989288 14.673429489 43.59154129
407 2 0.0 10.260859489 16.098970413 27.168048859
408 2 0.0 10.260859489 16.098970413 44.159046173
409 2 0.0 13.195209503 10.892929077 39.91299057
410 2 0.0 13.195209503 10.892929077 56.903995514
411 2 0.0 10.892929077 3.795789719 27.077997208
412 2 0.0 10.892929077 3.795789719 44.068992615
413 2 0.0 7.13961935 1.262429833 25.701728821
414 2 0.0 7.13961935 1.262429833 42.692726135
415 2 0.0 6.409009457 2.317569733 26.600545883
416 2 0.0 6.409009457 2.317569733 43.59154129
417 2 0.0 6.730129242 0.892029941 27.168048859
418 2 0.0 6.730129242 0.892029941 44.159046173
419 2 0.0 3.795789719 6.098069668 39.91299057
420 2 0.0 3.795789719 6.098069668 56.903995514
421 2 0.0 1.262429833 9.851379395 41.289264679
422 2 0.0 1.262429833 9.851379395 58.280265808
423 2 0.0 2.317569733 10.581989288 40.390445709
424 2 0.0 2.317569733 10.581989288 57.381439209
425 2 0.0 0.892029941 10.260859489 39.822944641
426 2 0.0 0.892029941 10.260859489 56.813941956
427 2 0.0 10.892929077 13.195209503 39.91299057
428 2 0.0 10.892929077 13.195209503 56.903995514
429 2 0.0 13.195209503 6.098069668 27.077997208
430 2 0.0 13.195209503 6.098069668 44.068992615
431 2 0.0 3.795789719 10.892929077 27.077997208
432 2 0.0 3.795789719 10.892929077 44.068992615
433 3 0.0 6.961719513 16.452718735 36.60111618
434 3 0.0 6.961719513 16.452718735 53.592105865
435 3 0.0 16.452718735 10.029278755 30.389877319
436 3 0.0 16.452718735 10.029278755 47.380874634
437 3 0.0 10.029278755 0.538269877 36.60111618
438 3 0.0 10.029278755 0.538269877 53.592105865
439 3 0.0 0.538269877 6.961719513 30.389877319
440 3 0.0 0.538269877 6.961719513 47.380874634
441 3 0.0 6.961719513 0.538269877 30.389877319
442 3 0.0 6.961719513 0.538269877 47.380874634
443 3 0.0 0.538269877 10.029278755 36.60111618
444 3 0.0 0.538269877 10.029278755 53.592105865
445 3 0.0 10.029278755 16.452718735 30.389877319
446 3 0.0 10.029278755 16.452718735 47.380874634
447 3 0.0 16.452718735 6.961719513 36.60111618
448 3 0.0 16.452718735 6.961719513 53.592105865
449 3 0.0 11.601119041 6.961719513 41.452716827
450 3 0.0 11.601119041 6.961719513 58.443725586
451 3 0.0 6.961719513 5.389879704 25.538269043
452 3 0.0 6.961719513 5.389879704 42.529266357
453 3 0.0 5.389879704 10.029278755 41.452716827
454 3 0.0 5.389879704 10.029278755 58.443725586
455 3 0.0 10.029278755 11.601119041 25.538269043
456 3 0.0 10.029278755 11.601119041 42.529266357
457 3 0.0 11.601119041 10.029278755 25.538269043
458 3 0.0 11.601119041 10.029278755 42.529266357
459 3 0.0 10.029278755 5.389879704 41.452716827
460 3 0.0 10.029278755 5.389879704 58.443725586
461 3 0.0 5.389879704 6.961719513 25.538269043
462 3 0.0 5.389879704 6.961719513 42.529266357
463 3 0.0 6.961719513 11.601119041 41.452716827
464 3 0.0 6.961719513 11.601119041 58.443725586
465 3 0.0 16.452718735 11.601119041 31.961719513
466 3 0.0 16.452718735 11.601119041 48.952716827
467 3 0.0 16.452718735 5.389879704 35.029277802
468 3 0.0 16.452718735 5.389879704 52.020271301
469 3 0.0 5.389879704 0.538269877 31.961719513
470 3 0.0 5.389879704 0.538269877 48.952716827
471 3 0.0 0.538269877 11.601119041 35.029277802
472 3 0.0 0.538269877 11.601119041 52.020271301
473 3 0.0 11.601119041 16.452718735 31.961719513
474 3 0.0 11.601119041 16.452718735 48.952716827
475 3 0.0 0.538269877 5.389879704 31.961719513
476 3 0.0 0.538269877 5.389879704 48.952716827
477 3 0.0 5.389879704 16.452718735 35.029277802
478 3 0.0 5.389879704 16.452718735 52.020271301
479 3 0.0 11.601119041 0.538269877 35.029277802
480 3 0.0 11.601119041 0.538269877 52.020271301
481 3 0.0 15.457219124 7.957219601 28.105607986
482 3 0.0 15.457219124 7.957219601 45.096607208
483 3 0.0 7.957219601 1.53377986 38.885375977
484 3 0.0 7.957219601 1.53377986 55.876377106
485 3 0.0 1.53377986 9.033768654 28.105607986
486 3 0.0 1.53377986 9.033768654 45.096607208
487 3 0.0 9.033768654 15.457219124 38.885375977
488 3 0.0 9.033768654 15.457219124 55.876377106
489 3 0.0 15.457219124 9.033768654 38.885375977
490 3 0.0 15.457219124 9.033768654 55.876377106
491 3 0.0 9.033768654 1.53377986 28.105607986
492 3 0.0 9.033768654 1.53377986 45.096607208
493 3 0.0 1.53377986 7.957219601 38.885375977
494 3 0.0 1.53377986 7.957219601 55.876377106
495 3 0.0 7.957219601 15.457219124 28.105607986
496 3 0.0 7.957219601 15.457219124 45.096607208
497 3 0.0 3.105609655 15.457219124 32.95721817
498 3 0.0 3.105609655 15.457219124 49.948226929
499 3 0.0 15.457219124 13.885378838 34.033771515
500 3 0.0 15.457219124 13.885378838 51.024765015
501 3 0.0 13.885378838 1.53377986 32.95721817
502 3 0.0 13.885378838 1.53377986 49.948226929
503 3 0.0 1.53377986 3.105609655 34.033771515
504 3 0.0 1.53377986 3.105609655 51.024765015
505 3 0.0 3.105609655 1.53377986 34.033771515
506 3 0.0 3.105609655 1.53377986 51.024765015
507 3 0.0 1.53377986 13.885378838 32.95721817
508 3 0.0 1.53377986 13.885378838 49.948226929
509 3 0.0 13.885378838 15.457219124 34.033771515
510 3 0.0 13.885378838 15.457219124 51.024765015
511 3 0.0 15.457219124 3.105609655 32.95721817
512 3 0.0 15.457219124 3.105609655 49.948226929
513 3 0.0 7.957219601 3.105609655 40.457214355
514 3 0.0 7.957219601 3.105609655 57.448215485
515 3 0.0 7.957219601 13.885378838 26.533777237
516 3 0.0 7.957219601 13.885378838 43.524776459
517 3 0.0 13.885378838 9.033768654 40.457214355
518 3 0.0 13.885378838 9.033768654 57.448215485
519 3 0.0 9.033768654 3.105609655 26.533777237
520 3 0.0 9.033768654 3.105609655 43.524776459
521 3 0.0 3.105609655 7.957219601 40.457214355
522 3 0.0 3.105609655 7.957219601 57.448215485
523 3 0.0 9.033768654 13.885378838 40.457214355
524 3 0.0 9.033768654 13.885378838 57.448215485
525 3 0.0 13.885378838 7.957219601 26.533777237
526 3 0.0 13.885378838 7.957219601 43.524776459
527 3 0.0 3.105609655 9.033768654 26.533777237
528 3 0.0 3.105609655 9.033768654 43.524776459
529 3 0.0 8.440299988 1.417999864 68.876930237
530 3 0.0 9.460299492 1.417999864 68.876930237
531 3 0.0 8.485939026 7.267819405 66.626731873
532 3 0.0 9.505939484 7.267819405 66.626731873
533 3 0.0 8.538518906 14.0063591 64.165863037
534 3 0.0 9.558519363 14.0063591 64.165863037
535 3 0.0 8.540928841 14.312659264 81.084312439
536 3 0.0 9.560929298 14.312659264 81.084312439
537 3 0.0 8.471609116 5.430029392 78.931060791
538 3 0.0 9.49160862 5.430029392 78.931060791
539 3 0.0 8.419059753 15.682489395 97.387565613
540 3 0.0 9.439059258 15.682489395 97.387565613
541 3 0.0 8.517048836 11.249677658 98.310379028
542 3 0.0 9.537049294 11.249677658 98.310379028
543 3 0.0 8.466849327 4.817439556 89.38973999
544 3 0.0 9.486848831 4.817439556 89.38973999
545 3 0.0 8.43819046 1.141869903 112.767982483
546 3 0.0 9.458189011 1.141869903 112.767982483
547 3 0.0 8.545759201 14.925251007 108.226669312
548 3 0.0 9.565748215 14.925251007 108.226669312
549 3 0.0 8.438209534 1.141867638 110.687530518
550 3 0.0 9.458208084 1.141867638 110.687530518
551 3 0.0 8.514669418 10.943388939 112.767982483
552 3 0.0 9.534668922 10.943388939 112.767982483
553 4 0.0 8.495498657 0.0 37.743247986
554 4 0.0 8.495498657 0.0 54.7342453
555 4 0.0 0.0 8.495498657 29.247747421
556 4 0.0 0.0 8.495498657 46.238742828
557 4 0.0 8.495498657 0.0 29.247747421
558 4 0.0 8.495498657 0.0 46.238742828
559 4 0.0 0.0 8.495498657 37.743247986
560 4 0.0 0.0 8.495498657 54.7342453
561 4 0.0 12.743247986 8.495498657 24.999998093
562 4 0.0 12.743247986 8.495498657 41.990997314
563 4 0.0 8.495498657 4.247749329 24.999998093
564 4 0.0 8.495498657 4.247749329 41.990997314
565 4 0.0 4.247749329 8.495498657 24.999998093
566 4 0.0 4.247749329 8.495498657 41.990997314
567 4 0.0 8.495498657 12.743247986 24.999998093
568 4 0.0 8.495498657 12.743247986 41.990997314
569 4 0.0 0.0 12.743247986 33.495494843
570 4 0.0 0.0 12.743247986 50.486495972
571 4 0.0 0.0 4.247749329 33.495494843
572 4 0.0 0.0 4.247749329 50.486495972
573 4 0.0 4.247749329 0.0 33.495494843
574 4 0.0 4.247749329 0.0 50.486495972
575 4 0.0 12.743247986 0.0 33.495494843
576 4 0.0 12.743247986 0.0 50.486495972
577 5 0.0 0.99999994 2.49677968 3.498369932
578 5 0.0 15.694503784 2.49677968 3.498369932
579 5 0.0 0.99999994 7.587099552 3.498369932
580 5 0.0 15.694503784 7.587099552 3.498369932
581 5 0.0 0.99999994 12.677429199 3.498369932
582 5 0.0 15.694503784 12.677429199 3.498369932
583 5 0.0 3.938899755 2.49677968 3.498369932
584 5 0.0 3.938899755 7.587099552 3.498369932
585 5 0.0 3.938899755 12.677429199 3.498369932
586 5 0.0 6.877799511 2.49677968 3.498369932
587 5 0.0 6.877799511 7.587099552 3.498369932
588 5 0.0 6.877799511 12.677429199 3.498369932
589 5 0.0 9.816699028 2.49677968 3.498369932
590 5 0.0 9.816699028 7.587099552 3.498369932
591 5 0.0 9.816699028 12.677429199 3.498369932
592 5 0.0 12.755599022 2.49677968 3.498369932
593 5 0.0 12.755599022 7.587099552 3.498369932
594 5 0.0 12.755599022 12.677429199 3.498369932
595 5 0.0 2.469449759 5.041939735 3.498369932
596 5 0.0 2.469449759 10.132259369 3.498369932
597 5 0.0 2.469449759 15.222589493 3.498369932
598 5 0.0 5.408349514 5.041939735 3.498369932
599 5 0.0 5.408349514 10.132259369 3.498369932
600 5 0.0 5.408349514 15.222589493 3.498369932
601 5 0.0 8.347249031 5.041939735 3.498369932
602 5 0.0 8.347249031 10.132259369 3.498369932
603 5 0.0 8.347249031 15.222589493 3.498369932
604 5 0.0 11.286149025 5.041939735 3.498369932
605 5 0.0 11.286149025 10.132259369 3.498369932
606 5 0.0 11.286149025 15.222589493 3.498369932
607 5 0.0 14.225049019 5.041939735 3.498369932
608 5 0.0 14.225049019 10.132259369 3.498369932
609 5 0.0 14.225049019 15.222589493 3.498369932
610 5 0.0 2.469449759 1.648389935 5.895440102
611 5 0.0 2.469449759 6.738709927 5.895440102
612 5 0.0 2.469449759 11.829039574 5.895440102
613 5 0.0 5.408349514 1.648389935 5.895440102
614 5 0.0 5.408349514 6.738709927 5.895440102
615 5 0.0 5.408349514 11.829039574 5.895440102
616 5 0.0 8.347249031 1.648389935 5.895440102
617 5 0.0 8.347249031 6.738709927 5.895440102
618 5 0.0 8.347249031 11.829039574 5.895440102
619 5 0.0 11.286149025 1.648389935 5.895440102