LAMMPS data file via write_data, version 12 Dec 2018, timestep = 16200000

4240 atoms
3 atom types

7.7075981038044887e+01 1.1392401896195412e+02 xlo xhi
7.7075981038044887e+01 1.1392401896195412e+02 ylo yhi
7.7075981038044887e+01 1.1392401896195412e+02 zlo zhi

Masses

1 12
2 14
3 1.008

Atoms # charge

2705 1 2.6251023498885606e-01 8.0316856166880953e+01 8.4406079236734200e+01 8.0117609421335544e+01 -1 4 -2
4105 3 1.0531206976233129e-01 8.3610643421383784e+01 8.1926102036495735e+01 8.1789403359091040e+01 0 0 0
2706 2 -3.1150936033490534e-01 8.0748476267198271e+01 8.3246950151376396e+01 8.0626055228711422e+01 -1 4 -2
2709 1 -1.8564688475817680e-02 7.8496850998850732e+01 8.2832218400412060e+01 8.1550167687750843e+01 -1 4 -2
2710 1 2.5121387606138285e-01 7.9911699119569633e+01 8.2474125078513595e+01 8.1332088965750259e+01 -1 4 -2
2711 2 -3.0159886679515169e-01 8.0383448659818185e+01 8.1320779620264076e+01 8.1860141852176255e+01 -1 4 -2
4107 1 -5.4539638520132543e-03 8.3909571616700248e+01 8.3724245085063103e+01 8.2917916525249041e+01 0 0 0
68 1 -8.4088304861544200e-02 8.1414571205375665e+01 8.1224149948593478e+01 8.5348544530441799e+01 0 0 0
610 1 2.6114616317565975e-01 7.8998964492187412e+01 7.9264152662896976e+01 7.9652367211787180e+01 0 0 1
606 2 -2.6105495248489230e-01 7.8541302941118303e+01 8.0344950650714694e+01 7.9018438945119343e+01 0 0 1
609 1 3.2327673464166637e-03 8.0469911886514950e+01 7.8981919108145874e+01 7.9640409725299605e+01 0 0 1
4106 1 -7.5364925710123459e-02 8.2546924737692194e+01 8.3895902755526379e+01 8.3216554723632811e+01 0 0 0
4110 3 1.2907040606309619e-01 8.1822102226829301e+01 8.3163475554028707e+01 8.2976412347317222e+01 0 0 0
72 3 1.0693745715043315e-01 8.0560938666562436e+01 8.0642199736456661e+01 8.5045474467533438e+01 0 0 0
69 1 -1.8866090482844825e-02 8.2734149424550750e+01 8.0919264694904101e+01 8.4973204514184104e+01 0 0 0
70 1 2.3282496129550992e-01 8.3841681331555691e+01 8.1807524880156251e+01 8.5461255878791718e+01 0 0 0
63 1 -9.0045392277955077e-02 8.3035695447217037e+01 7.9686995568854798e+01 8.4324862325572909e+01 0 0 0
67 3 1.4299684399448770e-01 8.2301613773161705e+01 7.8957449462611649e+01 8.4079890672758495e+01 0 0 0
4101 1 -7.6362406727963655e-02 8.4314284446257361e+01 8.2612136055002466e+01 8.2138773937340773e+01 0 0 0
64 1 -2.9940671959617533e-02 8.4336421746824854e+01 7.9481692116812539e+01 8.3906275947338116e+01 0 0 0
603 1 -3.8764780057076453e-02 8.1359611448586321e+01 7.9844334290081562e+01 7.8917448078618690e+01 0 0 1
2714 1 -2.5379908909561717e-02 7.8156047728638214e+01 8.0780568288388281e+01 8.2761124292730514e+01 -1 4 -2
2715 1 2.6328743531186694e-01 7.9593644836412693e+01 8.0463999259796964e+01 8.2575484443626735e+01 -1 4 -2
2716 2 -3.3164514608822671e-01 8.0054294495593297e+01 7.9333924763293325e+01 8.3072630636381732e+01 -1 4 -2
2703 1 -7.4061580378728065e-02 7.7982700126802072e+01 8.4056121617809367e+01 8.1036435537561388e+01 -1 4 -2
605 1 2.7473798893918167e-01 7.9295067770613457e+01 8.1217863448346719e+01 7.8378380116284021e+01 0 0 1
607 3 8.4184147122915817e-02 8.2379633782168597e+01 7.9685548349290755e+01 7.8847091984509490e+01 0 0 1
2719 1 -2.6656557199884634e-02 7.7812224081649703e+01 7.8551884902435091e+01 8.3780457942563046e+01 -1 4 -2
2720 1 2.6239709712691073e-01 7.9290523142554491e+01 7.8351552906185603e+01 8.3603242917949459e+01 -1 4 -2
611 2 -2.7072582336648399e-01 7.8077403492422874e+01 7.8445335934424648e+01 8.0186312196637800e+01 0 0 1
604 1 1.4837793873323513e-04 8.0781520607875294e+01 8.0982062477329578e+01 7.8353005395583068e+01 0 0 1
4108 1 2.2860966787149992e-01 8.4946086695332610e+01 8.4721879685635301e+01 8.3375857321388253e+01 0 0 0
4115 3 6.1201412391898802e-02 8.0056474036368769e+01 8.4613608754674161e+01 8.3703729196916228e+01 0 0 0
4112 1 -1.2590325853039118e-02 8.2155797384871860e+01 8.5108129859989276e+01 8.3859091585844808e+01 0 0 0
2704 1 -2.5327816520650720e-02 7.8911748660108387e+01 8.4863410100169915e+01 8.0376750200878419e+01 -1 4 -2
4109 2 -2.2399549604309213e-01 8.4534502710797042e+01 8.5789280139188705e+01 8.3986571863050784e+01 0 0 0
58 1 -7.4858554592809975e-02 8.4675416842568353e+01 7.8362775726458352e+01 8.3053194820211203e+01 0 0 0
66 2 -2.6445991405787000e-01 8.5112910660671560e+01 8.1455615461729082e+01 8.5122057547705708e+01 0 0 0
2701 2 -2.9792752252339877e-01 8.1135344903329127e+01 8.5252041190840771e+01 7.9507735595061746e+01 -1 4 -2
4111 1 -5.5096387439817783e-02 8.0777222571773933e+01 8.5404605209468599e+01 8.3950649642932476e+01 0 0 0
4113 1 2.3196239774215321e-01 8.3201137345266389e+01 8.6076700107144219e+01 8.4215352735874404e+01 0 0 0
2698 1 -6.4700572346862661e-02 7.8428039837855351e+01 8.6035057711979704e+01 7.9736600313647713e+01 -1 4 -2
4120 3 3.9163330343975761e-02 7.8309752983501298e+01 8.6338454639532216e+01 8.4404140817906011e+01 0 0 0
4117 1 -3.0065824739318851e-02 8.0475337665678680e+01 8.6684914146839034e+01 8.4445324148761316e+01 0 0 0
2551 3 6.8347682975054808e-02 8.1367178017802388e+01 8.7683259503243860e+01 8.1427246005292844e+01 0 0 0
4116 1 -5.3183263315148013e-02 7.9100266477278296e+01 8.6923717999792785e+01 8.4766222048563762e+01 0 0 0
2699 1 -1.6997301162308111e-02 7.9335194717704610e+01 8.6786923032316793e+01 7.9002543169332270e+01 -1 4 -2
2869 3 1.1607765970212419e-01 8.3869764239680435e+01 8.7292145378661218e+01 8.1443581407350337e+01 0 0 1
4114 2 -2.1012083516741539e-01 8.2825121875286243e+01 8.7245998229322637e+01 8.4721291156771088e+01 0 0 0
2550 3 3.9199185620456337e-02 7.9121955101854695e+01 8.8189268860730564e+01 8.2262363040272206e+01 0 0 0
2865 1 6.1333645575990997e-02 8.4698511448935079e+01 8.7442307131945199e+01 8.0725966716410852e+01 0 0 1
4118 1 2.3932167022323375e-01 8.1545362062057094e+01 8.7567967178309672e+01 8.4944489188947955e+01 0 0 0
2547 1 6.2258051158947801e-02 8.1225956158547149e+01 8.8699997704551436e+01 8.1800464475862327e+01 0 0 0
2700 1 2.4474331481992775e-01 8.0765421775319410e+01 8.6423258413750958e+01 7.8910792150091410e+01 -1 4 -2
3746 2 -2.1903529104136060e-01 8.5391672290374032e+01 8.8713901238462370e+01 8.5634456042130793e+01 0 0 0
62 3 6.4139904969950451e-02 8.3984196343568911e+01 7.7643274038614763e+01 8.2756671908125654e+01 0 0 0
4122 1 -3.1207267537154290e-02 7.8852740643779669e+01 8.8228606011071022e+01 8.5272696349083404e+01 0 0 0
2866 2 -1.7091047760334099e-01 8.5062153235034501e+01 8.8700244506854020e+01 8.0470617498567648e+01 0 0 1
2708 1 -7.1820113202439653e-02 7.7633200654072255e+01 8.2030807919020390e+01 8.2346139309207359e+01 -1 4 -2
4100 3 6.5588014571186251e-02 8.5569537899901604e+01 8.0588424885245871e+01 8.0764298635487251e+01 0 0 0
4102 1 -1.4329595911144161e-02 8.5690371395758746e+01 8.2496281318771238e+01 8.1833709196751244e+01 0 0 0
65 1 2.4439819926989301e-01 8.5431543223312502e+01 8.0427150095679821e+01 8.4329988353323628e+01 0 0 0
2868 3 9.5805620661107038e-02 8.5083284333863062e+01 8.5322167832090571e+01 8.0398133728271333e+01 0 0 1
77 3 4.4085431262954916e-02 7.9174024292879736e+01 8.1978884207502787e+01 8.5989310456030751e+01 0 0 0
608 1 -4.4982341013397237e-02 8.0887894250697045e+01 7.7768809669862208e+01 8.0196975566221525e+01 0 0 1
74 1 -3.7171162184337081e-02 8.1213013172801581e+01 8.2438485938083602e+01 8.6017775976467050e+01 0 0 0
2721 2 -3.0494414499783384e-01 7.9930253632347984e+01 7.7231917345394010e+01 8.3923950499852879e+01 -1 4 -2
2438 3 3.3422304705034281e-02 8.4425274621853717e+01 8.0017158634246584e+01 7.8093381537580342e+01 0 0 1
4096 1 -4.7118074309990973e-02 8.6213304405346719e+01 8.1403885400873563e+01 8.1065559431831574e+01 0 0 0
4104 2 -2.1602592232337239e-01 8.6250510400503003e+01 8.4611501389875855e+01 8.3035796848788451e+01 0 0 0
2696 2 -2.5520756955365886e-01 8.1560245259722350e+01 8.7144448862671695e+01 7.8125455607598226e+01 -1 4 -2
601 2 -2.7326856450036802e-01 7.8826931848696006e+01 8.2308489256411960e+01 7.7760077107814169e+01 0 0 1
2693 1 -7.5919004255209810e-02 7.8853675911271935e+01 8.7975988578637526e+01 7.8376924624272945e+01 -1 4 -2
2718 1 -5.9799587755396566e-02 7.7116174061705223e+01 7.7482878452335157e+01 8.4395145748665129e+01 -1 4 -2
598 1 -4.8893016146146294e-02 8.1589225988608462e+01 8.1880599116436173e+01 7.7680247430497147e+01 0 0 1
2864 1 -4.6687343194978484e-02 8.5411113045777498e+01 8.6329204162997428e+01 8.0153922868934501e+01 0 0 1
612 3 7.7334719527139190e-02 8.1932446885651714e+01 7.7542773334666180e+01 8.0272156043658299e+01 0 0 1
4119 2 -2.1980450176707328e-01 8.1243867206747467e+01 8.8772228634384291e+01 8.5519782925369512e+01 0 0 0
71 2 -2.7220765982986972e-01 8.3609684986614823e+01 8.2878891476824776e+01 8.6207790201269631e+01 0 0 0
602 3 9.0551873934333893e-02 8.2669017773651731e+01 8.1717064948818503e+01 7.7659023149840735e+01 0 0 1
4121 1 -5.7157183028075681e-02 7.7531810712682045e+01 8.8778249079810436e+01 8.5235159919904945e+01 0 0 0
2872 1 2.3808021309733174e-01 8.6127649117705346e+01 8.8983384581734114e+01 7.9689169035857830e+01 0 0 1
615 1 2.5072819378320743e-01 7.8434476593476390e+01 7.7262505097964421e+01 8.0748266231958112e+01 0 0 1
2436 1 9.6177667949388854e-02 8.5498589639995927e+01 8.0179082747830734e+01 7.7808671627721779e+01 0 0 1
2546 1 -6.6701131717740642e-02 7.9914542742440119e+01 8.8941535493251976e+01 8.2311927086925465e+01 0 0 0
2433 2 -2.7045527640700007e-01 8.5939820347078339e+01 8.1435811281913388e+01 7.7862196411437793e+01 0 0 1
2697 3 9.2710067502669011e-02 7.7877459464291263e+01 8.8273115249680103e+01 7.8505231096326554e+01 -1 4 -2
2702 3 8.9236276034496215e-02 7.7336596018149592e+01 8.6255090822403290e+01 7.9870725122340090e+01 -1 4 -2
2713 1 -5.9682975536541366e-02 7.7322261472174489e+01 7.9816872027012153e+01 8.3365986693589434e+01 -1 4 -2
4123 1 2.5912801985230088e-01 7.9964992369754356e+01 8.9165399117903888e+01 8.5705123203397548e+01 0 0 0
2694 1 -7.1833942075232929e-03 7.9727641345037654e+01 8.8592894757456449e+01 7.7450144920910944e+01 -1 4 -2
59 1 -3.7673283117576450e-02 8.5988335713490798e+01 7.8189396464044393e+01 8.2646518306721248e+01 0 0 0
2695 1 2.5542957234194963e-01 8.1157307670741758e+01 8.8180451017204575e+01 7.7380560099542350e+01 -1 4 -2
2437 3 1.6193407415590788e-01 8.5970762753050920e+01 7.8007477478265244e+01 7.7349140847273830e+01 0 0 1
3745 1 2.4805548074311648e-01 8.6289456618755239e+01 8.8876377126638133e+01 8.4665055693458086e+01 0 0 0
3722 3 6.1899971551020248e-02 9.4560473259024306e+01 8.6781310008696437e+01 7.7425827932619015e+01 0 0 0
2435 1 -1.1923805368749241e-01 8.6302031407567398e+01 7.9015133388167428e+01 7.7505815373486058e+01 0 0 1
3926 2 -2.7462810786949476e-01 9.2863539300127997e+01 8.9174761228620113e+01 8.4823536440092866e+01 1 -1 0
2428 2 -2.6904470647862078e-01 8.7577131132871514e+01 8.3026997134384459e+01 7.7447562029361151e+01 0 0 1
2614 1 2.4104751192358292e-01 9.5153915452885997e+01 7.8065512474498647e+01 8.2617684927918447e+01 0 1 0
3337 2 -2.2660077258371131e-01 9.1914873857176147e+01 8.3650253502372038e+01 8.3334927662973840e+01 0 0 0
3340 1 2.5134613661980668e-02 9.0172847072792024e+01 8.5021316620273069e+01 8.4405158289113288e+01 0 0 0
2432 1 2.4663964568989738e-01 8.7224162961403621e+01 8.1710851761418922e+01 7.7503176731219625e+01 0 0 1
2879 3 1.2434915576063252e-01 9.0292246062595638e+01 8.8924421775464438e+01 7.7177530143539570e+01 0 0 1
3736 2 -2.6674902466785627e-01 8.8350913028418134e+01 8.6828657221289248e+01 8.2515249812576769e+01 0 0 0
2607 1 -8.5431133966542769e-02 9.2909163988561247e+01 7.8837514876009379e+01 8.3346137378312832e+01 0 1 0
3341 1 2.7087056142256194e-01 9.0898237832842980e+01 8.3719041135316857e+01 8.4225604630765957e+01 0 0 0
3740 1 2.3208985615573405e-01 8.7806375985841015e+01 8.7916180409756095e+01 8.3075354364571609e+01 0 0 0
3564 2 -3.0668023399259170e-01 9.5301056772575265e+01 8.2300729389199674e+01 8.5462401786995173e+01 0 0 0
3346 1 2.5431251459837362e-01 8.9350087998211251e+01 8.2741097791014980e+01 8.5746375940469733e+01 0 0 0
55 1 2.3866434815050033e-01 8.8695247516400045e+01 7.7774549980977554e+01 8.2122916133634561e+01 0 0 0
3333 3 1.0401518263574384e-01 9.2262012997296566e+01 8.8210716004057119e+01 8.2852328760399956e+01 0 0 0
3331 1 2.4531787675075109e-01 9.4077355213731053e+01 8.5615806956316732e+01 8.1298162259364375e+01 0 0 0
3327 2 -3.1134688702569779e-01 9.5073300598830912e+01 8.5431415440468541e+01 8.0376123701561085e+01 0 0 0
4103 1 2.2058971944283229e-01 8.6644409761037991e+01 8.3534705179419035e+01 8.2317828021857068e+01 0 0 0
2874 3 1.4260719692185503e-01 8.8669494170442164e+01 8.7204716543893767e+01 7.7993670606929570e+01 0 0 1
3739 1 -1.9085312462546432e-02 8.8178410582937474e+01 8.9272382472905235e+01 8.2580466788383816e+01 0 0 0
2621 3 1.7100371016329485e-01 9.5100799001573492e+01 8.2554887169111510e+01 8.0718311343052946e+01 0 1 0
3724 1 -1.4588191685551175e-02 9.2889368524313198e+01 8.5757160213023582e+01 7.8363430177848798e+01 0 0 0
3925 1 6.2938306622633972e-02 9.4002220119729756e+01 8.8519650307166074e+01 8.4494994803596086e+01 1 -1 0
3725 1 2.4580157166744490e-01 9.2218072262506283e+01 8.4494245318681038e+01 7.8688560728802926e+01 0 0 0
2616 3 1.6723690462224819e-01 9.3791883018353630e+01 8.1248000643864827e+01 8.2316754999112661e+01 0 1 0
3720 1 2.4335375171134899e-01 9.3855161544690986e+01 8.3330021438398362e+01 7.7425711755125661e+01 0 0 0
2606 3 1.1123845024000742e-01 9.0565177221512414e+01 7.7660113193128737e+01 8.4476426915700046e+01 0 1 0
2612 1 -7.6922569708524319e-02 9.4473484563325613e+01 8.0442321921547958e+01 8.2224233274059969e+01 0 1 0
3336 1 2.6180722385552746e-01 9.2384160352658270e+01 8.4707733637044228e+01 8.2679834395013003e+01 0 0 0
4081 1 -7.6490296373644809e-02 9.2109565038533901e+01 7.8214164263163426e+01 7.8100711666148882e+01 0 0 0
2608 1 -8.7660203427360819e-03 9.2668935438870022e+01 7.7507141873981709e+01 8.3780319649438283e+01 0 1 0
3727 3 5.2078074430246445e-02 9.2664283467860713e+01 8.7947921768683756e+01 7.8362882220020609e+01 0 0 0
2871 1 5.8610718092863071e-03 8.6883204378694487e+01 8.7876665123419727e+01 7.9081464045050723e+01 0 0 1
3332 2 -2.6510591791992288e-01 9.3443039085806220e+01 8.4549131091081250e+01 8.1878638790041904e+01 0 0 0
3721 2 -2.6083377845206085e-01 9.2786089831612827e+01 8.3356573578242447e+01 7.8203989368663784e+01 0 0 0
3718 1 -4.6697752914220861e-02 9.4067280315321113e+01 8.5858110316397244e+01 7.7560309449014724e+01 0 0 0
3924 1 -9.3197757787687768e-02 9.4986106184639283e+01 8.9065028801491025e+01 8.3583060862915957e+01 1 -1 0
3330 1 -2.8062930269199874e-02 9.3587743536856578e+01 8.6943808584327073e+01 8.1687029650497948e+01 0 0 0
3732 3 3.8576407083972704e-02 9.1067595555838096e+01 8.9225531915087771e+01 7.9672222429386821e+01 0 0 0
61 2 -2.5827785509768930e-01 8.6667689402594661e+01 8.0149912975534050e+01 8.3947367265429236e+01 0 0 0
3723 1 -4.9418489638101477e-02 9.2350516947707305e+01 8.7013794762025825e+01 7.8743038173943191e+01 0 0 0
4090 3 8.0424202380206256e-02 8.9503622376350989e+01 7.8339448681088030e+01 7.8756801866461586e+01 0 0 0
56 2 -2.8043530554350682e-01 8.8310134723539704e+01 7.8860203663999172e+01 8.2855884993557652e+01 0 0 0
2863 1 -6.0923139166982609e-02 8.6528538582268595e+01 8.6507024687372677e+01 7.9308975998559632e+01 0 0 1
3726 2 -2.2863592694904569e-01 9.1143302410839311e+01 8.4573652431692906e+01 7.9499938809606689e+01 0 0 0
2611 3 1.4764502748460048e-01 9.2163212050590758e+01 7.9591003153224335e+01 8.3361717542822362e+01 0 1 0
4093 1 2.3654216195224781e-01 9.0331935348840929e+01 8.1163115506134375e+01 8.0687391707126338e+01 0 0 0
3735 1 2.2675785311295577e-01 8.9210974087469651e+01 8.6889611402233413e+01 8.1504999279979501e+01 0 0 0
4087 1 -2.1480396256945956e-02 9.1471972166634799e+01 7.9173420511807720e+01 7.8954734328508934e+01 0 0 0
4092 1 -1.2107008071055289e-02 8.9539868561511767e+01 8.0135651733628990e+01 7.9992476012407067e+01 0 0 0
3728 1 -5.8246373259084008e-02 9.0738903566905194e+01 8.8264005842453386e+01 8.0080148218707251e+01 0 0 0
3335 1 -7.0804482595947342e-03 9.1852308626059525e+01 8.6041815494711599e+01 8.3073516563981769e+01 0 0 0
4083 1 2.5784545859405716e-01 9.4204599357908279e+01 7.9436966262840158e+01 7.8503311937187490e+01 0 0 0
4094 2 -1.8894110184753427e-01 8.9824906060174712e+01 8.2217110019993186e+01 8.1349146898908444e+01 0 0 0
4095 3 8.0230715638834077e-02 8.7451102027286851e+01 7.9459012640581733e+01 7.9844379046267889e+01 0 0 0
4097 1 -3.3461902837331713e-03 8.7604779849669853e+01 8.1315660550554824e+01 8.0933489117876803e+01 0 0 0
4091 1 -5.4265979520648662e-02 8.8148641140160805e+01 8.0222565410121291e+01 8.0195421803573083e+01 0 0 0
3324 1 -6.5749091059770698e-02 9.4326823219304600e+01 8.8043037499917617e+01 8.1172950438461697e+01 0 0 0
4084 2 -2.6573728371272298e-01 9.3567408835468086e+01 8.0323785041116267e+01 7.9291063269252433e+01 0 0 0
4098 1 2.3859305100181483e-01 8.8513775002735969e+01 8.2378138152018934e+01 8.1520281529102320e+01 0 0 0
3338 3 1.3072062079781452e-01 9.0228240923999522e+01 8.7157684048673332e+01 8.4133418645381440e+01 0 0 0
3929 3 5.9891040380389532e-02 9.4049233966312883e+01 8.7491243423398046e+01 8.4877709302952894e+01 1 -1 0
4088 1 2.4463720940204414e-01 9.2287803189442798e+01 8.0261977665966896e+01 7.9554086714839528e+01 0 0 0
3329 1 -6.9473751248116292e-02 9.2509095552838858e+01 8.7184810213391629e+01 8.2602164800635606e+01 0 0 0
3339 1 -6.1602911732673134e-02 8.9051361830184106e+01 8.5144525672939920e+01 8.5254113625505894e+01 0 0 0
4082 1 -4.6863394575232947e-03 9.3479551485095826e+01 7.8293797933028344e+01 7.7871983599440327e+01 0 0 0
3334 1 -4.6829073323111009e-02 9.0694539613409972e+01 8.6168134804894777e+01 8.3876805262682822e+01 0 0 0
3730 1 2.3863261531782820e-01 9.0636288625364742e+01 8.5706150536441328e+01 7.9970843825410611e+01 0 0 0
2613 1 3.9676450606873706e-03 9.4138711892546070e+01 7.9207780632936732e+01 8.2781745105052835e+01 0 1 0
51 2 -2.9351957229747672e-01 8.9961338005602386e+01 7.7604339014037706e+01 8.1845506103312161e+01 0 0 0
3731 2 -2.4420205627444630e-01 8.9655304380673897e+01 8.5749934058803220e+01 8.0875930752809964e+01 0 0 0
2867 3 1.5146743363531651e-01 8.7103861188963279e+01 8.5711522559962816e+01 7.8917943943477212e+01 0 0 1
3343 3 1.6106030770018456e-01 8.8513102058672132e+01 8.6075015964542160e+01 8.5402132801333906e+01 0 0 0
3345 1 -1.2136613656883968e-02 8.8632604654145595e+01 8.3991848048125817e+01 8.5985112537858797e+01 0 0 0
3342 2 -2.5369019323804121e-01 9.0415244921411571e+01 8.2706569763414834e+01 8.4900527184226647e+01 0 0 0
4089 2 -2.3131628761343770e-01 9.1656761074287033e+01 8.1139280224491941e+01 8.0404688610934343e+01 0 0 0
3741 2 -2.5032171032965689e-01 8.6981832086868422e+01 8.7821711768676920e+01 8.4136618516494494e+01 0 0 0
3734 1 -3.9363570042464713e-02 8.9720313008355745e+01 8.8222798419223977e+01 8.1100694864131782e+01 0 0 0
60 1 2.4296357972013835e-01 8.7058819180037773e+01 7.9104369917517189e+01 8.3174972202257720e+01 0 0 0
2870 1 -7.6099301006417847e-02 8.8103176515412315e+01 8.8103519494623129e+01 7.8344931673246819e+01 0 0 1
4086 1 -5.3331892193498827e-02 9.0104594271752831e+01 7.9092815005633028e+01 7.9256388497946489e+01 0 0 0
4099 2 -2.0187947808028978e-01 8.7970053322144295e+01 8.3393775414220187e+01 8.2187877230537168e+01 0 0 0
3729 1 -3.2255039395146484e-02 9.1239743322342932e+01 8.7030591408670034e+01 7.9604781439568086e+01 0 0 0
3559 2 -2.8238029293085198e-01 9.3690266880871178e+01 8.4043846053999417e+01 8.6012742927155642e+01 0 0 0
3563 1 2.5796704073405369e-01 9.4908020100991166e+01 8.3526203659549068e+01 8.5895372052691286e+01 0 0 0
3328 3 5.7518429541967286e-02 9.3972623100699124e+01 8.9034994365893951e+01 8.1484830684456384e+01 0 0 0
4085 3 1.1850026529683813e-01 9.1518752010820890e+01 7.7468134938768387e+01 7.7660784639345167e+01 0 0 0
3719 1 -2.8231730856289303e-02 9.4566525105886527e+01 8.4613128854187181e+01 7.7091286783823477e+01 0 0 0
4079 2 -2.6990461917658282e-01 9.5498857729230565e+01 7.9573424642874585e+01 7.8201141703859506e+01 0 0 0
1815 1 -6.5600349894459800e-02 7.9559082795928902e+01 7.9696312089176132e+01 8.7369674261405180e+01 1 -1 1
80 1 2.2022592930327706e-01 8.0752412125236390e+01 8.4801284461571470e+01 8.7292688204265886e+01 0 0 0
1821 1 -2.0783469716581588e-02 8.0556080225341873e+01 7.8732520175309688e+01 8.7504680986016581e+01 1 -1 1
1819 3 7.5240051007533004e-02 7.9854136455182328e+01 8.0708351885198184e+01 8.7463232492217927e+01 1 -1 1
84 1 -2.1167847861242747e-02 7.8089524038129852e+01 8.5593828612199857e+01 8.7651026133845974e+01 0 0 0
81 2 -2.0823405143136364e-01 8.0493880219356228e+01 8.6026452042050707e+01 8.7792367910863689e+01 0 0 0
85 1 2.3006126955492609e-01 7.9259083566632711e+01 8.6456962496467924e+01 8.8096576922790746e+01 0 0 0
86 2 -2.1795543899671893e-01 7.9002018391920927e+01 8.7624131351659827e+01 8.8602257106965766e+01 0 0 0
4001 1 -2.3431325377021348e-02 7.8435209138553702e+01 8.2774314793253652e+01 9.0823902791493524e+01 1 0 0
3995 1 -6.0004122847852767e-02 7.9746924056374937e+01 8.2219402994671583e+01 9.0921894660555068e+01 1 0 0
3999 3 5.9328316283519582e-02 8.0587362274834049e+01 8.2802983828684887e+01 9.1173197192241702e+01 1 0 0
3997 1 2.6171867806804933e-01 7.8663496569079612e+01 7.9963644805559952e+01 9.0600155763485162e+01 1 0 0
3996 1 -3.1389232838582422e-02 7.9855751989466356e+01 8.0845643305128419e+01 9.0707812518677130e+01 1 0 0
4000 1 -6.2554425418538923e-02 7.8198931514502220e+01 8.4141891088837312e+01 9.1043204106396615e+01 1 0 0
3363 3 3.8787404526060533e-02 8.3597541216010669e+01 8.1650297713923607e+01 9.2593359723139216e+01 0 0 0
2008 1 2.6165703065851792e-01 7.8810305112373342e+01 7.9023790986113298e+01 9.3715105633900407e+01 1 0 -1
3365 1 -5.8670881903641905e-02 8.4357218090875818e+01 7.9727746386634536e+01 9.3444824216464980e+01 0 0 0
4004 3 8.2417371099789125e-02 7.8983232058971240e+01 8.4797883077282023e+01 9.1322649089795561e+01 1 0 0
2007 1 -2.5943219043114359e-02 8.0254662702462468e+01 7.9445413148118504e+01 9.3675526071217121e+01 1 0 -1
2004 2 -2.8309531469861632e-01 7.7857793946907222e+01 7.9945512397625507e+01 9.3857686648518325e+01 1 0 -1
2001 1 -5.2556086781757147e-02 8.0526700487795367e+01 8.0831252511743799e+01 9.3905694031926146e+01 1 0 -1
2003 1 2.6309678952205717e-01 7.8096555695012469e+01 8.1271522641221281e+01 9.4014005345933555e+01 1 0 -1
2002 1 -2.7688164748200204e-02 7.9497250192862879e+01 8.1762086306027769e+01 9.4123158365003917e+01 1 0 -1
1997 1 -2.7236366035545835e-02 7.8536437780750674e+01 8.3964907034534519e+01 9.4671263168355608e+01 1 0 -1
1996 1 -4.7067913862328656e-02 7.9655142445842671e+01 8.3141991614777197e+01 9.4362875252469763e+01 1 0 -1
3359 1 -6.4582495947427890e-02 8.4176724264818191e+01 8.0747524809101122e+01 9.2452993971103638e+01 0 0 0
2005 3 4.3825966789235428e-02 8.1564494887192112e+01 8.1057103438843626e+01 9.3872945061546744e+01 1 0 -1
3990 1 -6.5242813857895959e-02 8.1156121740386737e+01 8.0262773454843597e+01 9.0698690895533744e+01 1 0 0
3991 1 -3.2816919796557535e-02 8.1236954860687746e+01 7.8821738091011355e+01 9.0618289635837925e+01 1 0 0
3360 1 -4.1175644199320009e-02 8.4941969952114704e+01 8.0703541616559832e+01 9.1257944797518832e+01 0 0 0
3993 2 -2.8998204047219656e-01 7.8837861871914896e+01 7.8636197312235453e+01 9.0536878410334822e+01 1 0 0
3994 3 5.6091414656560264e-02 8.1990862722128668e+01 8.0857076153233720e+01 9.0790647066800616e+01 1 0 0
3366 1 2.6886713885497077e-01 8.5144890084015330e+01 7.8525128818617517e+01 9.3000349370084905e+01 0 0 0
3358 3 8.1714910498121129e-02 8.4455205308725894e+01 8.2614724931329334e+01 9.0656892788024294e+01 0 0 0
3354 1 -6.9573444189128114e-02 8.5010944925205266e+01 8.1794749684273441e+01 9.0401890595907105e+01 0 0 0
3989 3 8.2056495794475090e-02 8.3435107007943955e+01 7.8855079808536715e+01 9.0678505740625681e+01 1 0 0
897 1 -3.9344721901995387e-02 8.4014747756535087e+01 8.6194480367764598e+01 9.3304976315640715e+01 0 0 0
891 1 -5.3061019707300830e-02 8.2920355798496303e+01 8.6801661596115551e+01 9.4005197787279982e+01 0 0 0
892 1 -3.5841827275625841e-02 8.2594121736656973e+01 8.8102464803164935e+01 9.3570958325619074e+01 0 0 0
3985 1 -6.4890673658475589e-02 8.2506267449389227e+01 7.8249437265644431e+01 9.0631949576002825e+01 1 0 0
2010 3 8.1531671362308919e-02 8.2369771227477585e+01 7.8871019204398536e+01 9.3265271956861426e+01 1 0 -1
4009 3 9.8022168124493547e-02 7.7514275521576494e+01 8.6753844122954362e+01 9.1414647297285427e+01 1 0 0
2006 1 -3.7827114316344321e-02 8.1314096983420669e+01 7.8517592176814588e+01 9.3431984899835996e+01 1 0 -1
3992 1 2.5668387846199392e-01 8.0009812740003767e+01 7.8031822885366481e+01 9.0549410596546323e+01 1 0 0
2000 3 4.3368275870841216e-02 8.0653929811586153e+01 8.3538912168096374e+01 9.4350612475146690e+01 1 0 -1
1816 1 -2.0019301061615036e-02 7.8201939018019942e+01 7.9302172420004240e+01 8.7364145748116314e+01 1 -1 1
1814 3 5.4250337896193462e-02 7.7426487702435622e+01 8.1359280112399745e+01 8.7237528312615723e+01 1 -1 1
1810 1 -4.5439276807309893e-02 7.7170216331355476e+01 8.0266850898552974e+01 8.7321678482880174e+01 1 -1 1
3353 3 1.1734054809920136e-01 8.5560562682213018e+01 8.3776630734416059e+01 8.8790966707328280e+01 0 0 0
3364 1 -6.9535364649409556e-02 8.3731946315406248e+01 7.9714087421099563e+01 9.4707409455895856e+01 0 0 0
90 1 2.3395855432426454e-01 7.7767577865608672e+01 8.8175007082397869e+01 8.8645987262678091e+01 0 0 0
1817 1 2.6252488217842851e-01 7.7862218835467573e+01 7.7845874859004525e+01 8.7465879899886289e+01 1 -1 1
1825 1 -7.2587817271893645e-02 8.4341127986142027e+01 7.8538523930763446e+01 8.7358869267301301e+01 1 -1 1
1820 1 -6.6216747738044729e-02 8.1909936831375717e+01 7.9198880409040157e+01 8.7537684132194670e+01 1 -1 1
1826 1 -2.9222135128592175e-02 8.2920250767920706e+01 7.8253248692878088e+01 8.7343843098537675e+01 1 -1 1
900 3 5.1702777945943287e-02 8.3894449891169202e+01 8.4293166925364787e+01 9.4387265263599573e+01 0 0 0
894 2 -2.9763084720824373e-01 8.4326392696327659e+01 8.8125535954486494e+01 9.1900157030153011e+01 0 0 0
896 1 -5.5802273861490143e-02 8.4420540461670925e+01 8.4893512814286524e+01 9.3664541112953557e+01 0 0 0
898 1 2.5662275108991189e-01 8.4651974734070038e+01 8.6886712382613865e+01 9.2165343018870331e+01 0 0 0
3362 2 -3.4112868622959019e-01 8.5719062176432203e+01 7.8461833967312785e+01 9.1781208901190411e+01 0 0 0
905 3 7.0544650134797521e-02 8.5575414962542879e+01 8.2434466102777861e+01 9.4282279017202825e+01 0 0 0
76 2 -2.3981239506926316e-01 8.2038094719448893e+01 8.4447408970358083e+01 8.7042867396088852e+01 0 0 0
902 1 -4.0226721973062950e-02 8.5547462831031936e+01 8.4313554889767673e+01 9.3030327065968976e+01 0 0 0
899 2 -2.9663634557391205e-01 8.5710968658052991e+01 8.6263011868522582e+01 9.1529557688683752e+01 0 0 0
78 1 -5.3908688021772011e-02 7.8260323596746915e+01 8.4325586468984199e+01 8.7143669259843577e+01 0 0 0
3998 2 -2.9410422941102859e-01 7.7477151847990129e+01 8.0579439149839686e+01 9.0451136114106802e+01 1 0 0
4002 1 2.6466411391750938e-01 7.7240520996280637e+01 8.1914401450258211e+01 9.0538690067315130e+01 1 0 0
895 3 5.1504055083882623e-02 8.2458799901093968e+01 8.6342431836133557e+01 9.4892697019841819e+01 0 0 0
886 1 -4.7320639243260375e-02 8.1470953787256505e+01 8.8737983224744596e+01 9.4252243511012693e+01 0 0 0
893 1 2.5871959407062695e-01 8.3353782362269939e+01 8.8847496930459442e+01 9.2557667011214619e+01 0 0 0
3367 2 -3.5567997528185247e-01 8.5119082768433444e+01 7.7439030399132193e+01 9.3723196763678530e+01 0 0 0
3368 3 4.6581227887386265e-02 8.3162118679719754e+01 8.0501339608783397e+01 9.5105608423665288e+01 0 0 0
2009 2 -2.6233028824233867e-01 7.8535823153062509e+01 7.7712567086693525e+01 9.3662197284554551e+01 1 0 -1
1824 3 7.6377874520726419e-02 8.2158611974558696e+01 8.0221284017982526e+01 8.7564642125429089e+01 1 -1 1
79 1 -3.2476047485097775e-02 7.9612897969739578e+01 8.3941188212136026e+01 8.6905451348366540e+01 0 0 0
2813 3 1.5980569359516686e-01 8.5900338335044680e+01 8.8471841350714556e+01 8.9232353051873929e+01 0 0 -1
3371 1 2.6250288595163773e-01 8.4532584478624969e+01 7.7338709815800684e+01 9.4971232072019589e+01 0 0 0
890 3 3.7090948746211723e-02 8.0894125625810602e+01 8.8148229064532387e+01 9.4990473091379357e+01 0 0 0
1991 1 -5.5114016435697195e-02 7.8661104175450660e+01 8.5367037309919226e+01 9.4946376574956858e+01 1 0 -1
1831 1 -1.9941684031804185e-02 8.5287062097663338e+01 7.7454274247799518e+01 8.7305469493985115e+01 1 -1 1
3361 1 2.5653061130458249e-01 8.5710908615454059e+01 7.9473846771344782e+01 9.0925126594920116e+01 0 0 0
3355 1 -1.9437988364425576e-02 8.5940284693653510e+01 8.1695470111208508e+01 8.9330941708595518e+01 0 0 0
2011 1 -7.3816877206780596e-02 8.0963512747353278e+01 7.7165950333393837e+01 9.3468471998035014e+01 1 0 -1
75 1 2.3365827841183839e-01 8.2352114504094303e+01 8.3311490923475944e+01 8.6435553503220376e+01 0 0 0
901 1 -5.6198983754264756e-02 8.5978800262546599e+01 8.3039617546041029e+01 9.3470821257647088e+01 0 0 0
1829 3 1.0131176381822596e-01 8.4678543427417907e+01 7.9556421497833000e+01 8.7491606861234857e+01 1 -1 1
3349 1 -5.3692505541806206e-02 8.6147657027207231e+01 8.2865553074367000e+01 8.8534039823401287e+01 0 0 0
1822 1 2.5017108210020605e-01 8.0178414690037300e+01 7.7291827879195580e+01 8.7440242244238249e+01 1 -1 1
1998 1 2.6032745087104953e-01 7.7195145911161418e+01 8.3349455937874382e+01 9.4615399491498295e+01 1 0 -1
73 1 -6.5095967340787250e-02 7.9873670857742894e+01 8.2703910895398224e+01 8.6299543289217624e+01 0 0 0
1995 3 5.2931786874038912e-02 7.9611775976971515e+01 8.5861350244958658e+01 9.4913277297305655e+01 1 0 -1
82 3 4.4731847020959191e-02 7.7427048014594405e+01 8.3749656555069606e+01 8.6772371041962970e+01 0 0 0
903 1 2.5117571811768591e-01 8.6211178762311988e+01 8.5086141542169102e+01 9.1939133506431915e+01 0 0 0
91 2 -2.2583353339526746e-01 7.7513864380165572e+01 8.9356225515080197e+01 8.9108425298438888e+01 0 0 0
4195 2 -3.0572366337949602e-01 9.0181974110094117e+01 8.9343275609680035e+01 9.3754618502284700e+01 0 0 0