#Input file for lammps
 
2650 atoms
3 atom types
 
0.0 163.3 xlo xhi
0.0 163.3 ylo yhi
0.0 163.3 zlo zhi
 
Masses
 
1 12
2 14
3 1.008
 
Atoms
 
      1 1 0      92.5798      88.4244      100.418
      2 1 0      92.4725      89.5876      101.189
      3 1 0      91.5229      90.5768      100.785
      4 2 0      90.7337      90.4653      99.7229
      5 3 0      93.2783      87.6495      100.679
      6 3 0       93.089      89.7346      102.065
      7 3 0      91.4053      91.4994      101.356
      8 1 0      91.8064      87.1389      98.4636
      9 1 0      91.7309      88.2952      99.2688
     10 1 0      90.7744      89.3762      98.9269
     11 2 0      89.9861      89.2436      97.8499
     12 3 0      92.4918      86.3467       98.695
     13 1 0      90.9935       85.921       96.513
     14 1 0      90.9501      87.0591      97.3437
     15 1 0      90.0099      88.1691      97.0445
     16 2 0      89.2074      88.0682      95.9746
     17 3 0       91.668      85.1125       96.718
     18 1 0      90.1343       84.759      94.5485
     19 1 0      90.1242      85.8779      95.4054
     20 1 0       89.201      87.0118      95.1458
     21 2 0      88.3816      86.9499      94.0853
     22 3 0      90.7966      83.9341      94.7258
     23 1 0      89.2239      83.6576      92.5679
     24 1 0      89.2495      84.7553      93.4524
     25 1 0      88.3445      85.9124      93.2333
     26 2 0      87.5085      85.8923      92.1847
     27 3 0      89.8727      82.8163      92.7157
     28 1 0      88.2596      82.6214      90.5712
     29 1 0      88.3234      83.6951      91.4844
     30 1 0       87.439      84.8761      91.3092
     31 2 0      86.5863      84.9004      90.2746
     32 3 0      88.8929      81.7636      90.6873
     33 1 0      87.2372      81.6577      88.5592
     34 1 0      87.3431      82.7032      89.5025
     35 1 0      86.4821      83.9085      89.3752
     36 2 0      85.6126      83.9817      88.3577
     37 3 0      87.8526      80.7829      88.6399
     38 1 0      86.1502      80.7779      86.5326
     39 1 0       86.304      81.7889      87.5082
     40 1 0      85.4698      83.0188      87.4332
     41 2 0      84.5828      83.1474      86.4371
     42 3 0      86.7437      79.8851      86.5722
     43 1 0      84.9941      79.9961      84.4967
     44 1 0      85.1995      80.9664      85.5045
     45 1 0      84.3962      82.2199      85.4858
     46 2 0      83.4914      82.4095      84.5153
     47 3 0      85.5614      79.0857      84.4902
     48 1 0      83.7705      79.3214      82.4605
     49 1 0      84.0266      80.2481      83.4971
     50 1 0      83.2574      81.5228      83.5371
     51 2 0      82.3371      81.7734      82.5948
     52 3 0      84.3103      78.3959      82.4085
     53 1 0      82.4859      78.7533      80.4321
     54 1 0       82.789      79.6368       81.493
     55 1 0      82.0562      80.9293      81.5919
     56 2 0      81.1235       81.237      80.6785
     57 3 0       82.999      77.8162      80.3379
     58 1 0      81.1465      78.2881      78.4157
     59 1 0      81.4938      79.1282      79.4976
     60 1 0      80.7986      80.4353      79.6542
     61 2 0      79.8563      80.7966      78.7707
     62 3 0      81.6329      77.3417      78.2814
     63 1 0      79.7558      77.9236      76.4141
     64 1 0      80.1463       78.719      77.5147
     65 1 0      79.4897      80.0375      77.7279
     66 2 0        78.54      80.4509      76.8757
     67 3 0      80.2147      76.9699      76.2401
     68 1 0      78.3164      77.6598      74.4307
     69 1 0      78.7496      78.4086      75.5479
     70 1 0      78.1327      79.7358      75.8169
     71 2 0      77.1775      80.2004      74.9977
     72 3 0      78.7465      76.7009       74.217
     73 1 0      76.8311      77.4975      72.4694
     74 1 0      77.3064      78.1979       73.601
     75 1 0      76.7304       79.531      73.9251
     76 2 0      75.7717      80.0461      73.1409
     77 3 0      77.2313      76.5352      72.2162
     78 1 0      75.3032      77.4369      70.5346
     79 1 0      75.8195      78.0876      71.6781
     80 1 0      75.2857      79.4238      72.0568
     81 2 0      74.3257      79.9884      71.3094
     82 3 0      75.6724      76.4735      70.2421
     83 1 0      73.7361      77.4783      68.6305
     84 1 0       74.292      78.0781      69.7834
     85 1 0      73.8018      79.4145      70.2162
     86 2 0      72.8424      80.0277      69.5073
     87 3 0      74.0735      76.5157      68.2994
     88 1 0      72.1334      77.6216      66.7617
     89 1 0      72.7276      78.1693      67.9214
     90 1 0       72.282      79.5032      68.4073
     91 2 0      71.3253      80.1638      67.7385
     92 3 0      72.4383      76.6619      66.3927
     93 1 0      70.4988      77.8663      64.9322
     94 1 0      71.1298      78.3611      66.0963
     95 1 0      70.7297      79.6896      66.6343
     96 2 0      69.7779      80.3963      66.0073
     97 3 0      70.7705      76.9117      64.5261
     98 1 0       68.836       78.212      63.1463
     99 1 0      69.5023       78.653      64.3122
    100 1 0      69.1485      79.9732      64.9009
    101 2 0      68.2034      80.7247      64.3172
    102 3 0      69.0742      77.2643      62.7043
    103 1 0      67.8488      79.0441      62.5732
    104 1 0      67.5417      80.3535      63.2111
    105 3 0      67.3142      78.7372      61.6742
    106 3 0      66.7833      81.0094      62.7838
    107 1 0      126.021      82.9265      149.589
    108 1 0      126.803      81.8268      149.961
    109 1 0       128.12      82.0763      150.456
    110 2 0      128.653      83.2851      150.587
    111 3 0      125.023      82.7937       149.21
    112 3 0      126.422      80.8183      149.876
    113 3 0      128.765      81.2488      150.758
    114 1 0      125.835      85.3729      149.363
    115 1 0      126.588      84.2367      149.727
    116 1 0      127.967      84.3972      150.251
    117 2 0      128.486      85.6275      150.376
    118 3 0      124.837      85.2768      148.982
    119 1 0       125.72      87.8013      149.167
    120 1 0      126.438      86.6404      149.518
    121 1 0      127.821      86.7473      150.048
    122 2 0      128.371       87.963      150.185
    123 3 0       124.72      87.7379      148.783
    124 1 0      125.673      90.2338      148.996
    125 1 0      126.355      89.0474      149.335
    126 1 0      127.739      89.1052      149.868
    127 2 0      128.325      90.3025      150.021
    128 3 0      124.673      90.2046       148.61
    129 1 0      125.702      92.6718      148.855
    130 1 0      126.344      91.4589       149.18
    131 1 0      127.729      91.4667      149.717
    132 2 0      128.352      92.6422      149.885
    133 3 0      124.703      92.6789      148.467
    134 1 0      125.812      95.1143      148.744
    135 1 0       126.41      93.8744      149.054
    136 1 0      127.793      93.8282      149.594
    137 2 0      128.456      94.9789      149.779
    138 3 0      124.814      95.1603      148.354
    139 1 0      126.009      97.5592      148.668
    140 1 0      126.558      96.2914       148.96
    141 1 0      127.938      96.1868      149.502
    142 2 0      128.644      97.3084      149.706
    143 3 0      125.014      97.6482      148.276
    144 1 0      126.306      100.003       148.63
    145 1 0      126.798      98.7064      148.902
    146 1 0      128.172      98.5383      149.446
    147 2 0      128.924      99.6247       149.67
    148 3 0      125.317      100.142      148.238
    149 1 0      126.714      102.438      148.636
    150 1 0      127.142      101.113      148.885
    151 1 0      128.508      100.877       149.43
    152 2 0       129.31      101.923      149.675
    153 3 0      125.735      102.631      148.244
    154 1 0      127.238       104.85      148.688
    155 1 0      127.602      103.502      148.914
    156 1 0      128.954      103.197      149.457
    157 2 0      129.805      104.198      149.725
    158 3 0      126.271      105.098      148.297
    159 1 0      127.873      107.232      148.785
    160 1 0      128.175      105.866      148.988
    161 1 0       129.51      105.491      149.529
    162 2 0      130.404      106.449      149.816
    163 3 0      126.919       107.53      148.397
    164 1 0      128.611       109.58      148.925
    165 1 0      128.853        108.2      149.105
    166 1 0      130.169      107.757      149.643
    167 2 0      131.103       108.67      149.948
    168 3 0      127.672      109.924      148.539
    169 1 0      129.449      111.891      149.105
    170 1 0      129.631      110.498      149.263
    171 1 0      130.925       109.99      149.796
    172 2 0      131.896      110.857      150.119
    173 3 0      128.526       112.28      148.723
    174 1 0      130.385       114.16      149.326
    175 1 0      130.507      112.759      149.461
    176 1 0      131.775      112.187      149.989
    177 2 0      132.781      113.007      150.328
    178 3 0      129.481      114.595      148.948
    179 1 0      131.417      116.384      149.587
    180 1 0      131.477      114.977      149.699
    181 1 0      132.718      114.342       150.22
    182 2 0      133.757      115.112      150.575
    183 3 0      130.533      116.864      149.214
    184 1 0      132.542      118.558      149.888
    185 1 0      132.541      117.147      149.976
    186 1 0      133.752      116.451      150.489
    187 2 0      134.822       117.17      150.859
    188 3 0      131.681      119.082      149.521
    189 1 0      133.759      120.677      150.227
    190 1 0      133.697      119.266      150.291
    191 1 0      134.874      118.509      150.795
    192 2 0      135.973      119.175       151.18
    193 3 0      132.923      121.244      149.867
    194 1 0      135.064      122.735      150.604
    195 1 0      134.942      121.327      150.645
    196 1 0      136.083      120.511      151.139
    197 2 0      137.209      121.123      151.537
    198 3 0      134.254      123.344      150.252
    199 1 0      136.454      124.728      151.019
    200 1 0      136.272      123.327      151.036
    201 1 0      137.376      122.454      151.519
    202 2 0      138.525      123.009       151.93
    203 3 0      135.672      125.377      150.675
    204 1 0      137.926      126.652      151.469
    205 1 0      137.685       125.26      151.463
    206 1 0      138.749      124.332      151.934
    207 2 0       139.92       124.83      152.357
    208 3 0      137.175       127.34      151.135
    209 1 0      139.178      127.122      151.926
    210 1 0        140.2      126.142      152.383
    211 3 0        139.4      128.189      151.945
    212 3 0      141.172      126.485      152.739
    213 1 0      96.0906      73.7461      55.9745
    214 1 0      97.2618      73.0133      56.1994
    215 1 0      98.4567      73.4368      55.5383
    216 2 0      98.5296      74.4819      54.7229
    217 3 0      95.1652      73.4697      56.4473
    218 3 0      97.2639      72.1524      56.8534
    219 3 0      99.3932      72.8951      55.6844
    220 1 0      95.0029      75.6436      54.8403
    221 1 0      96.1599      74.8771      55.0948
    222 1 0      97.4468      75.2409       54.453
    223 2 0      97.4987      76.3006      53.6325
    224 3 0      94.0633       75.396      55.2952
    225 1 0      93.9908       77.539      53.6862
    226 1 0      95.1224       76.747      53.9673
    227 1 0      96.4342      77.0693        53.35
    228 2 0      96.5206      78.1227      52.5244
    229 3 0      93.0377      77.3169      54.1255
    230 1 0      93.0445      79.4495      52.5019
    231 1 0      94.1496      78.6311      52.8106
    232 1 0      95.4809       78.915       52.217
    233 2 0      95.6097      79.9601      51.3857
    234 3 0      92.0781      79.2544      52.9245
    235 1 0      92.1698      81.3774      51.2841
    236 1 0      93.2458      80.5312      51.6222
    237 1 0      94.5958      80.7756      51.0532
    238 2 0      94.7696      81.8101      50.2173
    239 3 0      91.1905      81.2109      51.6886
    240 1 0       91.372      83.3226      50.0313
    241 1 0      92.4154      82.4476      50.4006
    242 1 0      93.7841      82.6493      49.8588
    243 2 0      94.0056      83.6709       49.019
    244 3 0      90.3799      83.1872      50.4158
    245 1 0       90.659      85.2849      48.7414
    246 1 0      91.6649      84.3794      49.1445
    247 1 0      93.0522      84.5345       48.633
    248 2 0      93.3257      85.5404      47.7904
    249 3 0      89.6543      85.1839      49.1033
    250 1 0      90.0436      87.2635      47.4115
    251 1 0      91.0044      86.3254      47.8522
    252 1 0      92.4098      86.4294      47.3743
    253 2 0      92.7419      87.4156      46.5301
    254 3 0      89.0263      87.2027      47.7464
    255 1 0      89.5409      89.2538      46.0407
    256 1 0      90.4496      88.2828      46.5211
    257 1 0       91.871      88.3318      46.0806
    258 2 0      92.2674      89.2943      45.2362
    259 3 0      88.5123       89.238      46.3446
    260 1 0      89.1593      91.2468      44.6334
    261 1 0      90.0134      90.2464      45.1518
    262 1 0      91.4478       90.238      44.7511
    263 2 0      91.9078      91.1742      43.9087
    264 3 0      88.1222      91.2756      44.9058
    265 1 0       88.897      93.2349       43.196
    266 1 0      89.6975      92.2094      43.7487
    267 1 0       91.141      92.1433      43.3893
    268 2 0      91.6603      93.0523      42.5508
    269 3 0      87.8545       93.305      43.4385
    270 1 0      88.7487      95.2136      41.7334
    271 1 0      89.4962      94.1664      42.3177
    272 1 0      90.9454      94.0436      41.9998
    273 2 0      91.5197      94.9244       41.167
    274 3 0      87.7033      95.3231      41.9468
    275 1 0      88.7115      97.1801      40.2486
    276 1 0       89.405      96.1133       40.863
    277 1 0      90.8565      95.9351      40.5867
    278 2 0      91.4839      96.7862      39.7614
    279 3 0      87.6654      97.3286      40.4326
    280 1 0      88.7849      99.1312      38.7441
    281 1 0      89.4226      98.0469      39.3877
    282 1 0      90.8735      97.8138      39.1533
    283 2 0      91.5526      98.6335      38.3372
    284 3 0      87.7402      99.3187       38.898
    285 1 0      88.9689      101.063       37.223
    286 1 0      89.5492      99.9632      37.8946
    287 1 0      90.9964      99.6758      37.7024
    288 2 0       91.726      100.462      36.8973
    289 3 0      87.9279      101.289      37.3462
    290 1 0      89.2631      102.971      35.6886
    291 1 0      89.7848      101.858      36.3867
    292 1 0      91.2253      101.517      36.2373
    293 2 0      92.0041      102.268       35.445
    294 3 0       88.228      103.236      35.7807
    295 1 0      89.6668      104.851      34.1443
    296 1 0      90.1292      103.728      34.8672
    297 1 0      91.5598      103.333      34.7612
    298 2 0      92.3863      104.048      33.9833
    299 3 0        88.64      105.154      34.2051
    300 1 0      90.1792      106.699      32.5937
    301 1 0      90.5814      105.568      33.3397
    302 1 0      91.9992      105.121      33.2773
    303 2 0      92.8718      105.797      32.5156
    304 3 0      89.1628       107.04       32.623
    305 1 0       90.799      108.511      31.0403
    306 1 0      91.1405      107.374      31.8078
    307 1 0      92.5424      106.875      31.7891
    308 2 0      93.4594      107.511      31.0453
    309 3 0      89.7952      108.888      31.0381
    310 1 0      91.5247      110.282      29.4876
    311 1 0       91.805      109.142      30.2749
    312 1 0      93.1881      108.593      30.2997
    313 2 0      94.1476      109.187      29.5754
    314 3 0      90.5356      110.695      29.4542
    315 1 0      92.5734      110.867      28.7444
    316 1 0       93.935       110.27      28.8126
    317 3 0      92.3947      111.747      28.1262
    318 3 0      94.7571      110.708      28.2464
    319 1 0      158.561      58.8545      97.2196
    320 1 0      159.863      58.6428      96.7505
    321 1 0      160.878      59.5684      97.1459
    322 2 0      160.668      60.6184      97.9306
    323 3 0      157.761      58.1879      96.9519
    324 3 0      160.094      57.8046      96.1083
    325 3 0      161.907      59.4423      96.8038
    326 1 0      157.027      60.2373      98.5633
    327 1 0      158.325      59.9867      98.0682
    328 1 0      159.443      60.8936      98.4251
    329 2 0      159.209      61.9488      99.2192
    330 3 0      156.206      59.5927      98.3162
    331 1 0      155.566      61.6506      99.9105
    332 1 0      156.846      61.3642      99.3946
    333 1 0      157.998      62.2413      99.7222
    334 2 0      157.799      63.3053      100.514
    335 3 0      154.725      61.0251      99.6815
    336 1 0      154.162      63.1068      101.273
    337 1 0      155.424      62.7833      100.736
    338 1 0      156.606      63.6313      101.036
    339 2 0      156.448      64.7054      101.825
    340 3 0      153.301      62.5019      101.064
    341 1 0      152.821      64.6107      102.654
    342 1 0      154.063      64.2476      102.094
    343 1 0      155.273      65.0652      102.366
    344 2 0      155.161      66.1481      103.149
    345 3 0      151.941      64.0282      102.465
    346 1 0      151.549      66.1645      104.052
    347 1 0      152.768      65.7593      103.469
    348 1 0      154.006      66.5433       103.71
    349 2 0      153.943      67.6342      104.487
    350 3 0      150.648      65.6067      103.886
    351 1 0      150.351      67.7713      105.469
    352 1 0      151.543      67.3203       104.86
    353 1 0      152.812      68.0668      105.068
    354 2 0      152.802      69.1647      105.837
    355 3 0       149.43      67.2417      105.327
    356 1 0      149.242      69.4359      106.905
    357 1 0        150.4      68.9337      106.269
    358 1 0      151.699      69.6382       106.44
    359 2 0       151.75      70.7421      107.198
    360 3 0      148.298        68.94      106.792
    361 1 0      148.236      71.1602      108.357
    362 1 0      149.354      70.6037      107.693
    363 1 0      150.683      71.2614      107.823
    364 2 0        150.8      72.3698      108.568
    365 3 0      147.269      70.7034      108.277
    366 1 0      147.344      72.9392      109.819
    367 1 0      148.417      72.3306      109.129
    368 1 0      149.774      72.9379      109.218
    369 2 0      149.959      74.0479      109.947
    370 3 0      146.357      72.5222      109.771
    371 1 0      146.566      74.7646      111.285
    372 1 0      147.595      74.1085      110.573
    373 1 0      148.976      74.6636      110.619
    374 2 0      149.224      75.7724      111.332
    375 3 0      145.562      74.3856      111.268
    376 1 0      145.897      76.6297      112.751
    377 1 0      146.883      75.9297       112.02
    378 1 0      148.284       76.432      112.024
    379 2 0      148.592       77.537       112.72
    380 3 0      144.881      76.2879      112.764
    381 1 0      145.337      78.5307      114.216
    382 1 0      146.277      77.7884      113.466
    383 1 0      147.695      78.2376       113.43
    384 2 0      148.061      79.3365      114.107
    385 3 0       144.31      78.2265      114.258
    386 1 0      144.886       80.464      115.677
    387 1 0      145.778      79.6807       114.91
    388 1 0       147.21      80.0762      114.833
    389 2 0      147.633      81.1667       115.49
    390 3 0      143.849      80.1985      115.748
    391 1 0      144.544       82.426      117.131
    392 1 0      145.386      81.6031      116.349
    393 1 0      146.829       81.944       116.23
    394 2 0      147.308      83.0238      116.866
    395 3 0      143.501      82.1999      117.231
    396 1 0      144.313      84.4121      118.574
    397 1 0      145.102      83.5514      117.778
    398 1 0      146.554       83.837       117.62
    399 2 0      147.089      84.9037      118.232
    400 3 0      143.264      84.2264      118.703
    401 1 0      144.192      86.4181      120.004
    402 1 0      144.929      85.5217      119.197
    403 1 0      146.385      85.7511      118.997
    404 2 0      146.975      86.8024      119.585
    405 3 0      143.141      86.2731      120.162
    406 1 0      144.183      88.4394      121.417
    407 1 0      144.865      87.5093        120.6
    408 1 0      146.323       87.682       120.36
    409 2 0      146.967      88.7155      120.923
    410 3 0      143.132      88.3354      121.604
    411 1 0      144.285      90.4712       122.81
    412 1 0      144.911      89.5096      121.984
    413 1 0      146.368      89.6253      121.705
    414 2 0      147.064      90.6387      122.241
    415 3 0      143.236      90.4083      123.025
    416 1 0      144.497      92.5089       124.18
    417 1 0      145.066      91.5181      123.348
    418 1 0      146.519      91.5767       123.03
    419 2 0      147.267      92.5679      123.537
    420 3 0      143.453      92.4871      124.422
    421 1 0      145.332      93.5301      124.686
    422 1 0      146.777      93.5318      124.331
    423 3 0      144.928       94.311      125.331
    424 3 0      147.437      94.3114      124.712
    425 1 0       38.469      137.473       43.291
    426 1 0      38.0819      138.477      44.1869
    427 1 0      36.7175      138.507       44.613
    428 2 0      35.7905      137.644      44.2144
    429 3 0      39.4831      137.406      42.9394
    430 3 0      38.7928      139.208      44.5465
    431 3 0      36.3713      139.272       45.311
    432 1 0      37.8212      135.509       41.952
    433 1 0       37.474      136.537      42.8547
    434 1 0      36.0809      136.648      43.3522
    435 2 0      35.1597      135.766      42.9369
    436 3 0      38.8233      135.413      41.5813
    437 1 0      37.1108      133.572       40.652
    438 1 0      36.8063      134.612      41.5526
    439 1 0      35.4265      134.767      42.0799
    440 2 0      34.4811      133.901      41.6846
    441 3 0      38.1033      133.449      40.2638
    442 1 0      36.3322      131.643      39.3789
    443 1 0       36.072      132.697      40.2772
    444 1 0      34.7075       132.89      40.8303
    445 2 0       33.733      132.046      40.4599
    446 3 0      37.3136      131.493      38.9729
    447 1 0      35.4784      129.722      38.1347
    448 1 0      35.2659      130.791      39.0298
    449 1 0      33.9181      131.024      39.6088
    450 2 0      32.9144      130.203      39.2655
    451 3 0      36.4471      129.544      37.7102
    452 1 0       34.545      127.812       36.922
    453 1 0      34.3841      128.895      37.8127
    454 1 0      33.0558       129.17       38.419
    455 2 0      32.0221      128.375      38.1051
    456 3 0      35.4988      127.604      36.4781
    457 1 0      33.5255      125.915       35.745
    458 1 0      33.4216      127.011      36.6295
    459 1 0      32.1162      127.332      37.2645
    460 2 0      31.0514      126.568      36.9834
    461 3 0      34.4616      125.674      35.2804
    462 1 0      32.4097      124.037      34.6105
    463 1 0      32.3712      125.146      35.4858
    464 1 0      31.0927      125.515      36.1512
    465 2 0      29.9944      124.787      35.9079
    466 3 0      33.3233      123.757      34.1228
    467 1 0      31.1887      122.185      33.5279
    468 1 0      31.2214      123.304      34.3906
    469 1 0      29.9749      123.726       35.087
    470 2 0      28.8418      123.039       34.886
    471 3 0      32.0746      121.863      33.0157
    472 1 0      29.8626       120.37      32.5052
    473 1 0      29.9661      121.497      33.3526
    474 1 0       28.756      121.971      34.0795
    475 2 0      27.5907      121.327      33.9215
    476 3 0      30.7187      120.007      31.9701
    477 1 0      28.4394      118.598      31.5447
    478 1 0      28.6091      119.729      32.3756
    479 1 0       27.439      120.255      33.1311
    480 2 0       26.246      119.654      33.0143
    481 3 0      29.2658      118.199      30.9898
    482 1 0      26.9272      116.871      30.6456
    483 1 0      27.1599      118.003      31.4589
    484 1 0      26.0319       118.58      32.2408
    485 2 0      24.8155       118.02      32.1636
    486 3 0      27.7235      116.438      30.0728
    487 1 0      25.3308      115.191      29.8077
    488 1 0      25.6255      116.322      30.6018
    489 1 0      24.5415      116.946      31.4081
    490 2 0      23.3046      116.429      31.3699
    491 3 0      26.0956      114.724      29.2183
    492 1 0      23.6534       113.56       29.032
    493 1 0        24.01      114.688      29.8052
    494 1 0      22.9719      115.358       30.634
    495 2 0      21.7171      114.885       30.635
    496 3 0      24.3846      113.061       28.427
    497 1 0      21.8982      111.982      28.3201
    498 1 0      22.3162      113.104      29.0708
    499 1 0      21.3262      113.819      29.9204
    500 2 0       20.056       113.39      29.9607
    501 3 0       22.594       111.45      27.7008
    502 1 0      20.0691      110.459      27.6736
    503 1 0      20.5475      111.573      28.4002
    504 1 0      19.6077      112.332      29.2688
    505 2 0      18.3249      111.949      29.3486
    506 3 0      20.7278      109.897      27.0412
    507 1 0      18.1701      108.996       27.094
    508 1 0      18.7075      110.099       27.795
    509 1 0      17.8203      110.901      28.6809
    510 2 0      16.5274      110.564         28.8
    511 3 0      18.7903      108.404      26.4498
    512 1 0      16.2055      107.596      26.5826
    513 1 0      16.8007      108.686      27.2566
    514 1 0      15.9678      109.528      28.1578
    515 2 0      14.6677      109.239      28.3163
    516 3 0      16.7859      106.975       25.928
    517 1 0      14.1801      106.261      26.1405
    518 1 0      14.8314      107.337      26.7863
    519 1 0      14.0546      108.217       27.701
    520 2 0      12.7501      107.976      27.8985
    521 3 0      14.7193      105.614       25.477
    522 1 0      12.0983      104.996      25.7688
    523 1 0      12.8041      106.054       26.385
    524 1 0      12.0848       106.97      27.3111
    525 2 0      10.7786      106.779      27.5474
    526 3 0      12.5955      104.323      25.0979
    527 1 0      10.7234      104.841      26.0536
    528 1 0      10.0629      105.791      26.9892
    529 3 0      10.1467      104.036       25.597
    530 3 0      9.00292      105.688      27.2215
    531 1 0      116.839      41.6545      45.4158
    532 1 0      116.867      41.8076      44.0248
    533 1 0      115.858      42.6179      43.4175
    534 2 0      114.893      43.2368      44.0871
    535 3 0      117.575      41.0557       45.922
    536 3 0      117.629      41.3276      43.4264
    537 3 0      115.841       42.765      42.3359
    538 1 0      115.734      42.1923      47.5515
    539 1 0        115.8      42.3197      46.1477
    540 1 0      114.795      43.1409      45.4296
    541 2 0      113.828      43.7578      46.1252
    542 3 0      116.452      41.6028      48.0882
    543 1 0      114.591      42.7652      49.6286
    544 1 0      114.693      42.8661      48.2263
    545 1 0      113.711      43.6761      47.4607
    546 2 0      112.732      44.3061      48.1259
    547 3 0      115.294      42.1835      50.1932
    548 1 0        113.4      43.3781      51.6665
    549 1 0      113.539      43.4516      50.2659
    550 1 0      112.581      44.2494       49.459
    551 2 0      111.587      44.8952      50.0864
    552 3 0      114.086      42.8051      52.2598
    553 1 0      112.156      44.0352      53.6625
    554 1 0      112.335      44.0791      52.2646
    555 1 0      111.402      44.8639      51.4162
    556 2 0      110.393      45.5252      52.0024
    557 3 0      112.823      43.4719      54.2855
    558 1 0      110.855      44.7388      55.6127
    559 1 0      111.077       44.751      54.2193
    560 1 0      110.172      45.5209      53.3272
    561 2 0      109.149       46.198      53.8685
    562 3 0      111.501      44.1868      56.2667
    563 1 0      109.494      45.4927      57.5106
    564 1 0      109.763      45.4698      56.1245
    565 1 0      108.889      46.2226       55.186
    566 2 0      107.853      46.9159      55.6772
    567 3 0      110.117      44.9538      58.1981
    568 1 0      108.067      46.3026      59.3463
    569 1 0      108.389      46.2398      57.9715
    570 1 0      107.551      46.9727      56.9841
    571 2 0        106.5      47.6832      57.4173
    572 3 0       108.66      45.7801      60.0711
    573 1 0       106.57      47.1731      61.1051
    574 1 0      106.948       47.067      59.7468
    575 1 0       106.15      47.7768      58.7091
    576 2 0      105.087      48.5049      59.0775
    577 3 0      107.129      46.6703      61.8697
    578 1 0      105.006      48.1033      62.7746
    579 1 0      105.439      47.9545      61.4371
    580 1 0      104.686      48.6385      60.3498
    581 2 0      103.612      49.3825      60.6519
    582 3 0       105.53      47.6213      63.5765
    583 1 0      103.383      49.0879      64.3506
    584 1 0      103.867      48.8995      63.0361
    585 1 0       103.16      49.5557      61.9019