LAMMPS (31 Mar 2017)
  using 1 OpenMP thread(s) per MPI task
Reading data file ...
  orthogonal box = (-1.0556 -1.05564 -1.05564) to (83.4466 83.4466 83.4466)
  6 by 4 by 4 MPI processor grid
  reading atoms ...
  63998 atoms
Finding 1-2 1-3 1-4 neighbors ...
  special bond factors lj:   0          0          0         
  special bond factors coul: 0          0          0         
  0 = max # of 1-2 neighbors
  0 = max # of 1-3 neighbors
  0 = max # of 1-4 neighbors
  1 = max # of special neighbors
Finding 1-2 1-3 1-4 neighbors ...
  special bond factors lj:   0          0          1         
  special bond factors coul: 0          0          1         
  0 = max # of 1-2 neighbors
  0 = max # of 1-3 neighbors
  1 = max # of special neighbors
1 atoms in group pull
3199 atoms in group freez
PPPM initialization ...
WARNING: Using 12-bit tables for long-range coulomb (../kspace.cpp:321)
  G vector (1/distance) = 0.294194
  grid = 125 125 125
  stencil order = 5
  estimated absolute RMS force accuracy = 0.000416749
  estimated relative force accuracy = 1.25503e-06
  using double precision FFTs
  3d grid and FFT values/proc = 44109 31250
Neighbor list info ...
  update every 1 steps, delay 10 steps, check yes
  max neighbors/atom: 10000, page size: 100000
  master list distance cutoff = 14
  ghost atom cutoff = 14
  binsize = 7, bins = 13 13 13
  1 neighbor lists, perpetual/occasional/extra = 1 0 0
  (1) pair lj/cut/coul/long, perpetual
      attributes: half, newton on
      pair build: half/bin/newton
      stencil: half/bin/3d/newton
      bin: standard
Setting up Verlet run ...
  Unit style    : real
  Current step  : 0
  Time step     : 1
Per MPI rank memory allocation (min/avg/max) = 13.91 | 14.36 | 15.08 Mbytes
Step TotEng Temp Press PotEng KinEng Enthalpy f_9[3] f_9[4] f_9[5] f_9[6] f_9[7] 
       0    -10423425            0   -95435.651    -10423425            0    -11263254            0            0    59.861441    83.544316            0 
     200    -10447609   0.36674817    11.605765    -10447679    69.961944    -10447512   -2.7193418   -2.7193418    59.861241    83.483618 -0.0018429785 
     400    -10447561   0.59351947    13.784118    -10447674     113.2215    -10447446   -22.512797   -22.512797    59.861041    83.492948 -0.0036601305 
     600    -10447493   0.88251829   -14.237532    -10447661    168.35175    -10447611   -6.0951335   -6.0951335    59.860841    83.520163 -0.0057419843 
     800    -10447395    1.0442521   -3.1669028    -10447594    199.20456    -10447422    6.8440005    6.8440005    59.860641    83.510233 -0.0072954194 
    1000    -10447255    1.4768239    43.011474    -10447537    281.72321    -10446897   -11.120676   -11.120676    59.860441    83.509302 -0.0087895107 
    1200    -10447054     1.866366    692.64808    -10447410    356.03338    -10441286   -33.784516   -33.784516    59.860241      83.4721 -0.010911566 
    1400    -10446763    2.4171476   -211.60109    -10447224    461.10209    -10448526   -6.7903422   -6.7903422    59.860041    83.493075 -0.013114165 
    1600    -10446339    3.6722464     45.23106    -10447040    700.52838    -10445962    21.172791    21.172791    59.859841    83.554517 -0.014326338 
    1800    -10445713     5.427824    115.36306    -10446748    1035.4275    -10444752   -2.3149806   -2.3149806    59.859641    83.509718 -0.015581826 
    2000    -10444794    8.1662783    -422.4757    -10446351    1557.8229    -10448315   -55.159274   -55.159274    59.859441    83.427523 -0.017788209 
    2200    -10443409    11.483144   -817.21512    -10445600     2190.558    -10450223   -21.535494   -21.535494    59.859241    83.482291 -0.020334989 
    2400    -10441350    17.378155    156.52284    -10444665    3315.1072    -10440045    56.960926    56.960926    59.859041    83.605445 -0.021369165 
    2600    -10438220    24.624676   -104.38716    -10442917    4697.4746    -10439090     3.176355     3.176355    59.858841    83.476931 -0.021846551 
    2800    -10433497    37.076371   -1425.2285    -10440569     7072.796    -10445400   -88.293101   -88.293101    59.858641     83.39173 -0.024041725 
    3000    -10426301    55.090966    157.51452    -10436810    10509.312    -10424985   -48.621022   -48.621022    59.858441    83.438499 -0.026901971 
    3200    -10415369     85.70962   -28.192377    -10431719    16350.216    -10415605    104.86647    104.86647    59.858241     83.67196 -0.027764985 
    3400    -10398840    126.14472    1179.0524    -10422904    24063.733    -10388955    2.2992946    2.2992946    59.858041    83.500537 -0.027115671 
    3600    -10374175    191.37472    455.25539    -10410682    36507.197    -10370343   -71.232645   -71.232645    59.857841    83.445198 -0.030430722 
    3800    -10338178    284.49493    578.32181    -10392449    54271.078    -10333285   -59.850438   -59.850438    59.857641     83.45749 -0.034785173 
    4000    -10287737    411.37382   -1082.1356    -10366212    78474.863    -10296970    73.943472    73.943472    59.857441    83.631505  -0.03634413 
    4200    -10221899    577.68802    162.00346    -10332100    110201.44    -10220504   0.28110645   0.28110645    59.857241    83.592583 -0.039161209 
    4400    -10146059    763.91723    -217.2907    -10291786    145727.07    -10147953   -56.753347   -56.753347    59.857041    83.474566 -0.042552101 
    4600    -10078691    933.80652    -284.2962    -10256827    178135.64    -10081195   -24.816642   -24.816642    59.856841    83.457546 -0.045918526 
    4800    -10060578    969.28996   -523.26907    -10245483    184904.56    -10065201   -41.795086   -41.795086    59.856641    83.473817 -0.048366314 
    5000    -10092460    891.51951   -1262.4368    -10262529    170068.85    -10103562   -53.042924   -53.042924    59.856441    83.644479 -0.050822564 
    5200    -10088684    900.85691    297.74016    -10260534    171850.08    -10086067   -26.460029   -26.460029    59.856241      83.6109 -0.053783967 
    5400    -10067688     957.1199   -552.62537    -10250271    182582.97    -10072563   -22.638995   -22.638995    59.856041    83.545947 -0.056410379 
    5600    -10083344     919.0316    823.08647    -10258661    175317.13    -10076108   -47.508105   -47.508105    59.855841    83.322818 -0.058217519 
    5800    -10091337    897.87331    107.52613    -10262618    171280.92    -10090393    12.810444    12.810444    59.855641    83.653934 -0.059251344 
    6000    -10073156    940.87462   -1517.0215    -10252640    179483.97    -10086534   -5.1098233   -5.1098233    59.855441    83.512089 -0.062582918 
    6200    -10076661    934.49516    17.746957    -10254928    178267.01    -10076505    58.550627    58.550627    59.855241    83.643596 -0.063646038 
    6400    -10090495    899.53607    430.53137    -10262093    171598.11    -10086712    27.553305    27.553305    59.855041    83.686365 -0.062542719 
    6600    -10079381       930.17    1080.8564    -10256823    177441.93    -10069874    -36.45097    -36.45097    59.854841    83.431973 -0.060821693 
    6800    -10073675     941.2421    145.40544    -10253229    179554.07    -10072394    19.846659    19.846659    59.854641    83.507835 -0.060300881 
    7000    -10087399    906.61422    969.59117    -10260347    172948.36    -10078878   -48.537939   -48.537939    59.854441    83.369498 -0.058993592 
    7200    -10083531     915.2299    351.20286    -10258123    174591.91    -10080442    1.9101806    1.9101806    59.854241     83.47319 -0.058138807 
    7400    -10073366    941.46725   -62.280543    -10252963    179597.02    -10073915     69.86839     69.86839    59.854041    83.640599 -0.056813823 
    7600    -10083692    917.56011   -135.05657    -10258728    175036.43    -10084880    62.942622    62.942622    59.853841    83.525028 -0.056202509 
    7800    -10086682    912.31486    449.57626    -10260718    174035.83    -10082732    5.6812908    5.6812908    59.853641    83.470729 -0.055967428 
    8000    -10075185    938.60954    -87.96576    -10254236    179051.88    -10075959   -28.513856   -28.513856    59.853441    83.488213 -0.057703975 
    8200    -10079349    927.52574   -372.29428    -10256287     176937.5    -10082627   -38.985995   -38.985995    59.853241    83.505849 -0.060861671 
    8400    -10087718    907.08531   -114.24831    -10260756    173038.23    -10088722   -33.432937   -33.432937    59.853041     83.44209 -0.060834491 
    8600    -10078521    930.29888    156.34457    -10255988    177466.51    -10077146   -7.6387885   -7.6387885    59.852841    83.631959 -0.063732751 
    8800    -10076367    934.74067   -967.14478    -10254681    178313.84    -10084886    2.3700157    2.3700157    59.852641    83.619142 -0.066261013 
    9000    -10086697    906.92834   -1131.2238    -10259705    173008.28    -10096649    58.831756    58.831756    59.852441    83.585062 -0.067395264 
    9200    -10082064    920.40485   -434.43189    -10257643     175579.1    -10085887   -25.030416   -25.030416    59.852241    83.358009 -0.068765933 
    9400    -10074897    938.53302   -241.02488    -10253934    179037.28    -10077020   -43.832244   -43.832244    59.852041     83.36416 -0.071008235 
    9600    -10083918    917.72717    1019.6896    -10258986     175068.3    -10074955   -23.969208   -23.969208    59.851841    83.335196 -0.074738411 
    9800    -10085157    912.38414    457.05834    -10259206    174049.04    -10081138   -6.2310561   -6.2310561    59.851641     83.52314 -0.077950111 
   10000    -10075772    937.02464    116.31997    -10254522    178749.54    -10074748    30.960223    30.960223    59.851441    83.431654 -0.080203054 
   10200    -10080825     918.5417   -579.11882    -10256049    175223.68    -10085924   -36.839241   -36.839241    59.851241    83.453704 -0.084326228 
   10400    -10086467    907.13673    31.366961    -10259515    173048.03    -10086191   -41.139974   -41.139974    59.851041    83.434522 -0.087106915 
   10600    -10077815    928.59208   -1119.6157    -10254956    177140.92    -10087679   -45.291234   -45.291234    59.850841    83.546342 -0.087971826 
   10800    -10077942    933.33135   -569.48023    -10255987       178045    -10082956     14.13455     14.13455    59.850641    83.573708 -0.088872048 
   11000    -10086344    912.34762    984.65916    -10260386    174042.08    -10077692    52.870539    52.870539    59.850441    83.737509 -0.087004098 
   11200    -10080593    923.48915   -538.09419    -10256760    176167.47    -10085329    46.564564    46.564564    59.850241    83.600055 -0.084620924 
   11400    -10076354    934.66032    730.07284    -10254652    178298.51    -10069928   -41.236203   -41.236203    59.850041    83.448282 -0.082115714 
   11600    -10084561    914.88709   -1092.7753    -10259088    174526.51    -10094175   -26.981815   -26.981815    59.849841    83.449143 -0.082175465 
   11800    -10083217    919.35826    574.23501    -10258596    175379.45    -10078169  -0.31703716  -0.31703716    59.849641    83.497738 -0.082358429 
   12000    -10076317    935.20249   -978.62765    -10254719    178401.94    -10084939    66.128224    66.128224    59.849441    83.801119 -0.082487057 
   12200    -10082135    920.07658    1202.5173    -10257651    175516.48    -10071563    -15.03837    -15.03837    59.849241    83.607482  -0.08291143 
   12400    -10085079    913.79133   -707.06847    -10259396    174317.48    -10091298   -42.853952   -42.853952    59.849041    83.480349 -0.082852845 
   12600    -10077695    929.55613   -1177.0265    -10255020    177324.82    -10088063   -1.2411836   -1.2411836    59.848841    83.667497 -0.083479593 
   12800    -10079571    929.23339   -3.2254856    -10256834    177263.26    -10079599    4.3629591    4.3629591    59.848641    83.544614 -0.082760833 
   13000    -10085225     915.1766   -625.99027    -10259807    174581.74    -10090731   -15.705352   -15.705352    59.848441    83.638599 -0.084200803 
   13200    -10079809    926.42055    677.15903    -10256535    176726.67    -10073852   -15.571217   -15.571217    59.848241    83.645857 -0.088483663 
   13400    -10077899     933.4376    50.201771    -10255965    178065.26    -10077457    5.4625302    5.4625302    59.848041    83.618365  -0.09094661 
   13600    -10084376    913.03127   -826.87516    -10258548    174172.49    -10091651    -14.19193    -14.19193    59.847841    83.511902 -0.092640943 
   13800    -10082023     919.9581   -59.176408    -10257517    175493.88    -10082544   -17.320316   -17.320316    59.847641    83.546862 -0.096507645 
   14000    -10077119    934.21742    107.10516    -10255333    178214.03    -10076176   -28.466912   -28.466912    59.847441    83.454158 -0.097901343 
   14200    -10082742    921.16479    59.948429    -10258466    175724.07    -10082215   -50.648369   -50.648369    59.847241     83.54163  -0.10138676 
   14400    -10083608    916.87231    -79.35421    -10258513    174905.22    -10084306   -19.620919   -19.620919    59.847041     83.43394  -0.10602198 
   14600    -10077855    934.17332   -361.74523    -10256061    178205.61    -10081039    28.126223    28.126223    59.846841    83.500573  -0.10852352 
   14800    -10080923    923.71621    1612.7135    -10257134    176210.78    -10066745   -12.306481   -12.306481    59.846641    83.545825  -0.10868843 
   15000    -10084634    915.16779   -418.46242    -10259214    174580.06    -10088315   -27.044901   -27.044901    59.846441    83.383229  -0.11063504 
   15200    -10078992    924.12081   -530.39261    -10255280    176287.97    -10083662    8.6476637    8.6476637    59.846241    83.441875  -0.10916875 
   15400    -10078748    931.93052    147.81697    -10256526    177777.77    -10077447    -14.17764    -14.17764    59.846041    83.467502  -0.10773729 
   15600    -10084705    912.89189    552.34154    -10258851     174145.9    -10079849    37.562013    37.562013    59.845841    83.615286  -0.10591477 
   15800    -10081011    924.63759    93.445099    -10257398    176386.55    -10080189    25.681133    25.681133    59.845641    83.537541  -0.10595546 
   16000    -10077302    929.64995    1304.5532    -10254645    177342.72    -10065825   -55.967338   -55.967338    59.845441    83.439798  -0.10514263 
   16200    -10083676    915.77912    12.167459    -10258372    174696.68    -10083569    6.0720395    6.0720395    59.845241    83.652548  -0.10535367 
   16400    -10083164    916.15725   -793.90535    -10257933    174768.81    -10090149   -24.976301   -24.976301    59.845041    83.451978  -0.10293949 
   16600    -10077234    932.54052    110.56039    -10255128    177894.13    -10076261   -16.679466   -16.679466    59.844841    83.434052  -0.10323641 
   16800    -10081656    920.95282    694.49322    -10257340    175683.63    -10075549    16.841447    16.841447    59.844641    83.675346  -0.10258468 
   17000    -10084699    911.28765     432.7928    -10258539    173839.88    -10080894    52.175278    52.175278    59.844441    83.603413  -0.10260605 
   17200    -10078445    933.33472    55.333178    -10256490    178045.64    -10077958   -29.781714   -29.781714    59.844241    83.469257   -0.1045911 
   17400    -10079599    927.13151    37.555475    -10256461     176862.3    -10079268    7.7795216    7.7795216    59.844041    83.518614  -0.10772387 
   17600    -10084891    914.40545   -409.50372    -10259326    174434.64    -10088493   -2.6082518   -2.6082518    59.843841    83.431882  -0.10975831 
   17800    -10080160     923.6983   -316.91003    -10256368    176207.37    -10082949   -23.488353   -23.488353    59.843641    83.485574  -0.11369688 
   18000    -10078022    926.97838   -791.03442    -10254856    176833.08    -10084990   -31.625581   -31.625581    59.843441    83.393942  -0.11621515 
   18200    -10083808    914.12132   -814.54388    -10258189    174380.43    -10090976   -59.167905   -59.167905    59.843241    83.376223  -0.12052303 
   18400    -10082206    917.74394   -315.63236    -10257277     175071.5    -10084983    48.090446    48.090446    59.843041    83.613592  -0.12370197 
   18600    -10077773    926.92063    29.877952    -10254595    176822.07    -10077510    33.502884    33.502884    59.842841    83.698057  -0.12538418 
   18800    -10082359    919.31395    320.40668    -10257730       175371    -10079541   -77.309184   -77.309184    59.842641    83.346514  -0.12702687 
   19000    -10083653    915.50864   -636.95659    -10258299    174645.08    -10089257   -19.538546   -19.538546    59.842441    83.329317  -0.12903302 
   19200    -10078128    928.46697     218.0623    -10255245    177117.05    -10076208   -25.092001   -25.092001    59.842241    83.287172  -0.12961047 
   19400    -10080584    921.40892    392.96034    -10256354    175770.64    -10077126    41.912896    41.912896    59.842041    83.541039  -0.12839252 
   19600    -10084547    914.87161   -1347.1794    -10259071    174523.56    -10096400    9.1779196    9.1779196    59.841841    83.470388  -0.12916753 
   19800    -10079429    928.51372    90.808966    -10256555    177125.97    -10078630     6.764837     6.764837    59.841641    83.695103  -0.12908011 
   20000    -10078543    930.75827   -324.89979    -10256097    177554.15    -10081403    66.780047    66.780047    59.841441    83.475328  -0.12777091 
   20200    -10084200    916.91065   -378.18016    -10259113    174912.54    -10087527    16.782718    16.782718    59.841241    83.683188  -0.12496418 
   20400    -10081306    924.98013   -24.706828    -10257758    176451.89    -10081524   -2.2636692   -2.2636692    59.841041    83.647575  -0.12439669 
   20600    -10077875    930.15031    -109.5107    -10255313    177438.17    -10078839   -21.240197   -21.240197    59.840841    83.565438  -0.12481191 
   20800    -10082941    917.20485    349.76687    -10257910    174968.66    -10079865    11.395769    11.395769    59.840641    83.522644   -0.1245836 
   21000    -10083346    917.24174   -891.96033    -10258322     174975.7    -10091194    20.098374    20.098374    59.840441    83.549641  -0.12228284 
   21200    -10077838    929.52101    160.11429    -10255156    177318.12    -10076428    -12.98264    -12.98264    59.840241    83.432983  -0.12115081 
   21400    -10081088    922.83498    192.56353    -10257130    176042.68    -10079394   -23.616217   -23.616217    59.840041    83.644492  -0.12117293 
   21600    -10084344    915.83201    171.16152    -10259050    174706.77    -10082839    16.570798    16.570798    59.839841    83.328819  -0.12377069 
   21800    -10079060    926.75767   -768.29349    -10255851    176790.98    -10085825    17.943469    17.943469    59.839641    83.579708  -0.12696657 
   22000    -10079396    926.19623    346.94699    -10256079    176683.88    -10076343   -20.683434   -20.683434    59.839441    83.497419  -0.12989911 
   22200    -10084085    917.39803   -875.97603    -10259090    175005.51    -10091792   -40.438739   -40.438739    59.839241    83.466181  -0.13292873 
   22400    -10080726    921.67083    880.20018    -10256547     175820.6    -10072985   -6.5771558   -6.5771558    59.839041    83.445676  -0.13713849 
   22600    -10078185    931.60845    1042.0924    -10255902    177716.33    -10069018    32.014885    32.014885    59.838841    83.643373  -0.13829107 
   22800    -10083075    918.07643    975.77551    -10258210    175134.92    -10074496   -14.753692   -14.753692    59.838641    83.613848  -0.13966677 
   23000    -10082648    918.75143    713.60303    -10257912    175263.69    -10076374   -29.605673   -29.605673    59.838441    83.648542  -0.14204121 
   23200    -10078209    928.62875    808.53116    -10255357    177147.91    -10071094     25.97093     25.97093    59.838241    83.433367  -0.14349463 
   23400    -10081558    920.09914    229.06827    -10257079    175520.78    -10079543   -2.4599544   -2.4599544    59.838041    83.546204  -0.14512545 
   23600    -10083857    915.77209   -277.32261    -10258552    174695.34    -10086297   -69.026114   -69.026114    59.837841    83.444221  -0.14749415 
   23800    -10079100     928.5462   -67.705184    -10256233    177132.17    -10079696   -36.892077   -36.892077    59.837641    83.602776  -0.14846656 
   24000    -10079549    923.64871    260.38855    -10255747    176197.91    -10077258    9.6929462    9.6929462    59.837441    83.429082  -0.14919567 
   24200    -10083932    920.49203    395.58847    -10259527    175595.73    -10080454    13.548842    13.548842    59.837241     83.41435  -0.14736667 
   24400    -10080882    921.70795   -410.73352    -10256710    175827.68    -10084497   -18.525063   -18.525063    59.837041    83.464158  -0.14643772 
   24600    -10078488    930.92996   -101.98307    -10256075     177586.9    -10079386   -11.738519   -11.738519    59.836841    83.430782  -0.14672548 
   24800    -10082843    920.24767    495.50084    -10258392    175549.11    -10078486   -28.475573   -28.475573    59.836641    83.361793  -0.14526559 
   25000    -10082094     920.3951    866.80469    -10257671    175577.24    -10074473    24.977732    24.977732    59.836441    83.439279  -0.14287111 
   25200    -10078574    927.53361   -921.63909    -10255513       176939    -10086691   -30.290251   -30.290251    59.836241    83.422705  -0.14272631 
   25400    -10081854    923.44542    259.34173    -10258013    176159.13    -10079573    5.6756069    5.6756069    59.836041    83.403301   -0.1424518 
   25600    -10083155    917.70359    486.68454    -10258219     175063.8    -10078876   -16.932252   -16.932252    59.835841    83.438673  -0.14239869 
   25800    -10079077    928.10126   -218.52926    -10256125    177047.29    -10081001    -29.68141    -29.68141    59.835641    83.628371  -0.14442084 
   26000    -10080464    922.96131    709.71089    -10256530    176066.78    -10074221   -48.655683   -48.655683    59.835441    83.438024  -0.14673401 
   26200    -10083424    915.34089    1393.3478    -10258037    174613.08    -10071178    26.718031    26.718031    59.835241    83.640488  -0.14931516 
   26400    -10080170    919.57928   -1115.5141    -10255592    175421.61    -10089994    11.510604    11.510604    59.835041    83.505759  -0.15202692 
   26600    -10079582    923.96912    9.1085548    -10255841    176259.03    -10079502   -27.287226   -27.287226    59.834841    83.531946  -0.15409235 
   26800    -10082850    923.22763    251.96752    -10258968    176117.58    -10080634    -36.49982    -36.49982    59.834641    83.521913  -0.15786862 
   27000    -10081462    921.76291   -454.56255    -10257300    175838.17    -10085462   -4.4838641   -4.4838641    59.834441    83.464687  -0.15954569 
   27200    -10079015    926.45175    385.46087    -10255748    176732.62    -10075623   -63.961094   -63.961094    59.834241    83.380832  -0.16106916 
   27400    -10082028    917.93043   -433.85105    -10257135    175107.07    -10085846    -20.12843    -20.12843    59.834041     83.48853  -0.16422657 
   27600    -10082614      916.197    660.41394    -10257390     174776.4    -10076806    13.290589    13.290589    59.833841    83.562947  -0.16458929 
   27800    -10079344    927.67965   -120.36082    -10256311    176966.86    -10080403    3.6682182    3.6682182    59.833641     83.44312  -0.16659736 
   28000    -10080897    923.16166    559.11818    -10257002       176105    -10075979    34.764492    34.764492    59.833441    83.629647  -0.16719936 
   28200    -10083116    919.87801   -54.562173    -10258594     175478.6    -10083596   -32.761539   -32.761539    59.833241    83.403342  -0.16829167 
   28400    -10080069    929.44542   -147.17064    -10257373     177303.7    -10081364   -50.675805   -50.675805    59.833041    83.316194  -0.17129664 
   28600    -10079766    922.72404   -539.64736    -10255788    176021.51    -10084517    57.071365    57.071365    59.832841    83.520044  -0.17031503 
   28800    -10082789    917.82501    49.485191    -10257876    175086.96    -10082353    42.810331    42.810331    59.832641    83.395058  -0.16827104 
   29000    -10081246    918.64973    536.48092    -10256491    175244.29    -10076527    46.948297    46.948297    59.832441    83.647626  -0.16553742 
   29200    -10079266    928.08242   -274.17296    -10256310    177043.69    -10081680    34.297976    34.297976    59.832241    83.673287  -0.16226218 
   29400    -10082238    921.37734    549.02247    -10258003    175764.61    -10077409    9.3998655    9.3998655    59.832041    83.536003  -0.16085515 
   29600    -10082240    919.45133    544.06661    -10257637     175397.2    -10077455   -5.4613271   -5.4613271    59.831841    83.557288  -0.16021475 
   29800    -10079213    924.93165     1019.267    -10255655    176442.64    -10070247    29.370557    29.370557    59.831641    83.455344  -0.16062381 
   30000    -10081172    923.82193     118.5437    -10257403    176230.95    -10080130    37.726865    37.726865    59.831441    83.589992  -0.16036221 
   30200    -10082977    919.20152   -924.59531    -10258326    175349.55    -10091111    2.8007918    2.8007918    59.831241    83.530835  -0.16057665 
   30400    -10079905    920.44335    510.14326    -10255491    175586.44    -10075415   -9.9115441   -9.9115441    59.831041    83.398809  -0.16249968 
   30600    -10080076    925.33947   -16.170211    -10256596    176520.44    -10080218    5.6265743    5.6265743    59.830841    83.535974  -0.16447153 
   30800    -10083052    920.47754   -521.71993    -10258645    175592.96    -10087641    12.155192    12.155192    59.830641    83.413062  -0.16612835 
   31000    -10080705    923.95553     125.5695    -10256961    176256.44    -10079600   -18.243272   -18.243272    59.830441    83.390124    -0.167877 
   31200    -10079135    929.63748   -528.59966    -10256475    177340.34    -10083789   -13.940634   -13.940634    59.830241    83.501399  -0.16972299 
   31400    -10082602    920.89649    1408.9895    -10258275    175672.89    -10070219    1.8847103    1.8847103    59.830041    83.545466  -0.16965192 
   31600    -10081879    924.23899    1090.1823    -10258189    176310.51    -10072296   -46.643948   -46.643948    59.829841    83.285076  -0.17248961 
   31800    -10079182    931.34528    140.36706    -10256848    177666.13    -10077947   -2.2813549   -2.2813549    59.829641    83.484156  -0.17777033 
   32000    -10081629    923.08027   -1023.0607    -10257718    176089.47    -10090635   -26.681883   -26.681883    59.829441    83.386664  -0.17935149 
   32200    -10082667    920.33956   -540.03022    -10258234    175566.64    -10087419   -39.478376   -39.478376    59.829241    83.534815  -0.18190853 
   32400    -10079473     924.0496     1147.432    -10255748    176274.38    -10069379    13.328632    13.328632    59.829041    83.609254  -0.18238857 
   32600    -10080614    925.82178   -983.18134    -10257226    176612.45    -10089269    61.367618    61.367618    59.828841    83.639572  -0.18244105 
   32800    -10083217    919.31407   -107.97155    -10258589    175371.02    -10084167    86.958477    86.958477    59.828641     83.48382  -0.18040359 
   33000    -10080227    925.07541   -182.98859    -10256697    176470.07    -10081837   -41.898186   -41.898186    59.828441    83.472351  -0.17921383 
   33200    -10079721    925.24619   -91.982359    -10256224    176502.65    -10080531   -2.8728614   -2.8728614    59.828241    83.346147  -0.17997449 
   33400    -10082643    919.08483   -220.18861    -10257970    175327.29    -10084580    19.098891    19.098891    59.828041    83.474807  -0.17679363 
   33600    -10081240    922.43401    1228.9172    -10257206    175966.19    -10070436    17.883375    17.883375    59.827841     83.40875  -0.17478849 
   33800    -10079209    930.64175    43.116967    -10256741    177531.92    -10078830    8.8626544    8.8626544    59.827641    83.250419  -0.17445557 
   34000    -10082097    922.08107    1479.5979    -10257996    175898.86    -10069093    10.646398    10.646398    59.827441    83.578299   -0.1741907 
   34200    -10082310    923.27371    -595.9525    -10258437    176126.37    -10087553    3.5912986    3.5912986    59.827241    83.599691  -0.17427247 
   34400    -10079604     927.2135   -111.74154    -10256482    176877.94    -10080587   -4.1429466   -4.1429466    59.827041    83.556841  -0.17467511 
   34600    -10080895    925.51516   -1071.5407    -10257448    176553.96    -10090326    23.605301    23.605301    59.826841    83.436191  -0.17491734 
   34800    -10082710    918.80505   -320.27639    -10257984    175273.92    -10085528     7.579071     7.579071    59.826641    83.611731   -0.1750901 
   35000    -10080097    928.54164    872.61512    -10257228     177131.3    -10072423   -22.332676   -22.332676    59.826441    83.500494  -0.17737596 
   35200    -10080146    924.81403      100.684    -10256566    176420.21    -10079260    18.137426    18.137426    59.826241    83.528447  -0.18007191 
   35400    -10082565      921.311   -333.68583    -10258317    175751.96    -10085500    -15.66815    -15.66815    59.826041    83.574729   -0.1829394 
   35600    -10081061    922.37485   -331.40794    -10257016     175954.9    -10083978   -17.046758   -17.046758    59.825841    83.549819  -0.18597755 
   35800    -10079771    924.24042    110.78229    -10256082    176310.78    -10078796    6.0043013    6.0043013    59.825641    83.405137   -0.1861287 
   36000    -10081965    920.49157   -1055.3053    -10257560    175595.64    -10091255   -3.8520948   -3.8520948    59.825441    83.402484  -0.18934927 
   36200    -10081775    920.01518   -196.49441    -10257280    175504.76    -10083504   -27.616976   -27.616976    59.825241    83.351484  -0.19144583 
   36400    -10079983     922.6564    467.00656    -10255992    176008.61    -10075874   -57.819787   -57.819787    59.825041    83.443564  -0.19390884 
   36600    -10081277    921.99035    859.69543    -10257159    175881.55    -10073717    39.253552    39.253552    59.824841    83.480796  -0.19492927 
   36800    -10082276    919.59423    258.61891    -10257701    175424.46    -10080002    3.3988531    3.3988531    59.824641    83.426099  -0.19409134 
   37000    -10080221    925.07854   -901.49909    -10256691    176470.67    -10088156    2.3256812    2.3256812    59.824441    83.497313    -0.192013 
   37200    -10080442    925.49193    -205.3767    -10256992    176549.52    -10082249   -10.160941   -10.160941    59.824241    83.439738  -0.19198634 
   37400    -10082275    920.81329    697.71311    -10257932    175657.01    -10076140    46.145546    46.145546    59.824041    83.519682   -0.1896331 
   37600    -10080969    921.43122   -768.30246    -10256744    175774.89    -10087731    45.809216    45.809216    59.823841     83.56848  -0.18812442 
   37800    -10079836    926.26847   -1560.5615    -10256533    176697.66    -10093581   -15.116274   -15.116274    59.823641     83.38476  -0.18637434 
   38000    -10081991    924.34887    868.17117    -10258323    176331.47    -10074359    8.2881759    8.2881759    59.823441    83.429804  -0.18536581 
   38200    -10081564    922.01517      130.802    -10257451    175886.29    -10080414    5.7157431    5.7157431    59.823241    83.375962   -0.1851263 
   38400    -10079661    927.14892    -216.7723    -10256527    176865.62    -10081569    37.530686    37.530686    59.823041    83.456702   -0.1850356 
   38600    -10081698    919.61408    334.80149    -10257126    175428.25    -10078753   -25.672666   -25.672666    59.822841    83.347663  -0.18201535 
   38800    -10082454    915.04859   -331.78983    -10257012    174557.32    -10085374    18.793464    18.793464    59.822641    83.497879  -0.18287905 
   39000    -10079944    925.57248   -1400.7946    -10256509    176564.89    -10092279      10.5394      10.5394    59.822441    83.527083  -0.18298838 
   39200    -10080660     924.6643   -347.68872    -10257052    176391.64    -10083720   -12.140791   -12.140791    59.822241    83.443532  -0.18311564 
   39400    -10082631    919.21834    464.90819    -10257984    175352.76    -10078542   -21.269496   -21.269496    59.822041     83.28578  -0.18576165 
   39600    -10080513     928.8031    605.52171    -10257695    177181.17    -10075188   -7.2373632   -7.2373632    59.821841    83.514532  -0.18852984 
   39800    -10080006    929.10914   -102.46471    -10257245    177239.55    -10080907   -6.0775582   -6.0775582    59.821641    83.461955  -0.18983954 
   40000    -10082171    916.61261    319.97287    -10257027    174855.68    -10079357   -7.8579691   -7.8579691    59.821441    83.421823  -0.19264791 
   40200    -10081339    923.21202    304.28317    -10257453     176114.6    -10078662   -1.1297205   -1.1297205    59.821241    83.497715  -0.19615215 
   40400    -10080022    928.17107   -826.64901    -10257083    177060.61    -10087299    -9.243035    -9.243035    59.821041    83.540859  -0.19860627 
   40600    -10081429    920.84634   -354.96681    -10257093    175663.32    -10084553   -37.003518   -37.003518    59.820841    83.297535  -0.20261528 
   40800    -10081995    923.54028    -161.4432    -10258172    176177.22    -10083415    5.7279745    5.7279745    59.820641    83.509042  -0.20438019 
   41000    -10080253    927.75132   -565.05141    -10257234    176980.53    -10085226    14.479291    14.479291    59.820441    83.490891  -0.20289037 
   41200    -10080624    928.57624   -64.941463    -10257762     177137.9    -10081196   -29.375295   -29.375295    59.820241    83.493068  -0.20173063 
   41400    -10082150    924.13717    159.32148    -10258441    176291.09    -10080749   -10.595685   -10.595685    59.820041    83.261016  -0.20126362 
   41600    -10081036    920.43301   -724.58421    -10256620    175584.47    -10087414    33.007911    33.007911    59.819841    83.629441   -0.2013673 
   41800    -10079987    926.84537    462.60559    -10256794    176807.71    -10075917    2.3091908    2.3091908    59.819641    83.498984  -0.19879848 
   42000    -10081980    920.28261   -352.28597    -10257536    175555.78    -10085079    16.243953    16.243953    59.819441     83.62641  -0.19819617 
   42200    -10081622    922.04069   -521.22292    -10257514    175891.16    -10086208    4.8163772    4.8163772    59.819241    83.512007   -0.1968987 
   42400    -10079784    925.16417   -374.43747    -10256271       176487    -10083080    61.379274    61.379274    59.819041    83.636689  -0.19467181 
   42600    -10081715    919.53566   -212.10253    -10257129    175413.29    -10083582    87.191337    87.191337    59.818841    83.544415  -0.19172529 
   42800    -10082128     926.3956    842.14182    -10258850    176721.91    -10074726    22.152764    22.152764    59.818641     83.64383  -0.19089465 
   43000    -10079956    925.11879   -292.48949    -10256435    176478.34    -10082531    -41.00941    -41.00941    59.818441    83.299468  -0.19156624 
   43200    -10080815    923.53845    199.39613    -10256992    176176.87    -10079061   -4.1415914   -4.1415914    59.818241    83.628055  -0.19250092 
   43400    -10082570    918.28266   -204.27732    -10257745    175174.26    -10084367   -5.0687991   -5.0687991    59.818041    83.409647  -0.19179443 
   43600    -10080501    927.81331    977.72331    -10257494    176992.36    -10071904    29.599002    29.599002    59.817841    83.639451   -0.1929235 
   43800    -10080076    927.31429   -317.74644    -10256974    176897.16    -10082873    33.420977    33.420977    59.817641    83.621104  -0.19356082 
   44000    -10082309    920.27036     -663.958    -10257863    175553.44    -10088152   -13.466926   -13.466926    59.817441    83.275904  -0.19686439 
   44200    -10081257    924.24198   -160.78311    -10257568    176311.08    -10082672   -28.412421   -28.412421    59.817241    83.495672  -0.20125846 
   44400    -10079633     926.5259   -251.19661    -10256380    176746.77    -10081844   -7.6901872   -7.6901872    59.817041    83.422539   -0.2035364 
   44600    -10081852    918.70921    861.67488    -10257107    175255.63    -10074274    33.731663    33.731663    59.816841    83.576361  -0.20569916 
   44800    -10082034    920.22528   -306.06415    -10257579    175544.84    -10084727    17.347627    17.347627    59.816641    83.580556  -0.20553618 
   45000    -10079502    930.39162     305.9506    -10256986     177484.2    -10076810   -29.817458   -29.817458    59.816441    83.500525   -0.2094497 
   45200    -10081219     922.8421   -105.59267    -10257263    176044.04    -10082147    1.0489805    1.0489805    59.816241    83.593766  -0.21088965 
   45400    -10082545    920.29551   -354.87236    -10258104    175558.24    -10085668   -16.467404   -16.467404    59.816041    83.386367  -0.20956617 
   45600    -10079981    924.89109   -17.639646    -10256416    176434.91    -10080136    23.756707    23.756707    59.815841    83.370166   -0.2099061 
   45800    -10080357     923.1001    94.538282    -10256450    176093.25    -10079525   -19.407037   -19.407037    59.815641    83.469237  -0.21140007 
   46000    -10082576    919.74337    598.00937    -10258029    175452.91    -10077319   -35.294537   -35.294537    59.815441    83.271804  -0.20998251 
   46200    -10080698    923.12885   -206.54416    -10256797    176098.74    -10082516   -8.0186773   -8.0186773    59.815241    83.423311  -0.20892333 
   46400    -10079744    924.59089    445.32948    -10256122    176377.64    -10075826    4.2088876    4.2088876    59.815041    83.525385  -0.20802719 
   46600    -10082286    920.69188   -1012.8317    -10257919    175633.85    -10091200    52.256142    52.256142    59.814841    83.332147  -0.20717232 
   46800    -10081685    919.10832   -767.01862    -10257017    175331.77    -10088436    26.140298    26.140298    59.814641    83.586729  -0.20608967 
   47000    -10079507    927.75384    13.267838    -10256488    176981.01    -10079391    26.677646    26.677646    59.814441    83.580924  -0.20396871 
   47200    -10081270    924.37729   -256.38779    -10257606    176336.89    -10083525   -9.8847943   -9.8847943    59.814241    83.614839  -0.20326142 
   47400    -10082364    919.98442     578.4152    -10257863     175498.9    -10077276   -29.210991   -29.210991    59.814041    83.334128  -0.20332891 
   47600    -10080119    926.57098    800.03322    -10256874    176755.37    -10073082   -22.939701   -22.939701    59.813841    83.324094  -0.20301369 
   47800    -10080586    923.81404    -953.6192    -10256815    176229.45    -10088980    12.892741    12.892741    59.813641    83.272733  -0.20373753 
   48000    -10082645    917.41249    241.75587    -10257653    175008.27    -10080519    18.205227    18.205227    59.813441    83.402624  -0.20625875 
   48200    -10080785    922.67209   -812.83052    -10256796     176011.6    -10087940   -9.6586762   -9.6586762    59.813241    83.565222  -0.20828428 
   48400    -10079804    925.09637    852.13999    -10256278    176474.07    -10072308   -9.6628357   -9.6628357    59.813041    83.507417  -0.21057868 
   48600    -10082198    920.86284    153.57471    -10257864    175666.47    -10080847   -9.0916647   -9.0916647    59.812841    83.510885  -0.21350928 
   48800    -10081453    921.30454    538.79503    -10257203    175750.73    -10076714    26.199838    26.199838    59.812641    83.345811  -0.21595706 
   49000    -10079710    924.70164    700.28641    -10256108    176398.77    -10073548    1.2851534    1.2851534    59.812441    83.430692  -0.21665515 
   49200    -10081558    921.26568     446.4637    -10257301    175743.31    -10077631   -8.1265265   -8.1265265    59.812241    83.424028  -0.21810701 
   49400    -10081919    917.86726    -369.1418    -10257014    175095.02    -10085167    21.841769    21.841769    59.812041    83.486754  -0.21912575 
   49600    -10080207    925.07789    1462.7351    -10256678    176470.54    -10067347   -16.111726   -16.111726    59.811841    83.341683  -0.21952281 
   49800    -10080972    922.87627   -166.05263    -10257022    176050.56    -10082433   -15.786727   -15.786727    59.811641    83.374959  -0.21956144 
   50000    -10082186     915.1773   -1028.4945    -10256767    174581.88    -10091239   -44.025964   -44.025964    59.811441    83.340351  -0.22188152 
   50200    -10080713    923.21717   -500.30617    -10256829    176115.59    -10085116   -8.8799571   -8.8799571    59.811241     83.43246  -0.22010768 
   50400    -10080401    928.28791    324.53523    -10257484    177082.89    -10077546    35.898899    35.898899    59.811041    83.610555  -0.21932134 
   50600    -10081777    921.91937   -755.32082    -10257645    175868.01    -10088424  -0.82020308  -0.82020308    59.810841    83.415986  -0.21664977 
   50800    -10081338    921.75984   -807.24916    -10257175    175837.58    -10088443    25.752738    25.752738    59.810641    83.635733  -0.21527666 
   51000    -10080175    928.84504   -688.88114    -10257364    177189.17    -10086238    42.793397    42.793397    59.810441    83.550884   -0.2130564 
   51200    -10081319    922.71814      206.875    -10257339    176020.39    -10079499   0.77749713   0.77749713    59.810241    83.519381  -0.21175159 
   51400    -10081901    927.49144     382.0933    -10258832    176930.96    -10078541   -4.4258564   -4.4258564    59.810041    83.428865  -0.21112292 
   51600    -10080438    923.86349   -15.394964    -10256677    176238.88    -10080574     14.98091     14.98091    59.809841    83.477869  -0.20909802 
   51800    -10080925    923.13512    1770.6752    -10257025    176099.93    -10065362    12.274747    12.274747    59.809641    83.760173  -0.20917169 
   52000    -10082068    918.50228   -468.71097    -10257284    175216.16    -10086193   -22.712678   -22.712678    59.809441    83.619059  -0.21051018 
   52200    -10080661    923.78009    67.490238    -10256884    176222.97    -10080067   -39.058538   -39.058538    59.809241    83.481824  -0.21219559 
   52400    -10080362     925.7576    505.37592    -10256962     176600.2    -10075916   -4.6286359   -4.6286359    59.809041    83.332086  -0.21245895 
   52600    -10081792    923.46015    1484.8296    -10257954    176161.94    -10068741    -27.90253    -27.90253    59.808841    83.352721  -0.21580487 
   52800    -10081471    919.67841     138.6524    -10256912    175440.52    -10080251   -28.618022   -28.618022    59.808641     83.33877  -0.21699384 
   53000    -10080143    922.51476    209.35082    -10256125    175981.59    -10078301   -42.147181   -42.147181    59.808441    83.311092  -0.22154582 
   53200    -10081151     921.6797    -50.34716    -10256974    175822.29    -10081594   -8.1142134   -8.1142134    59.808241    83.575604  -0.22292791 
   53400    -10081946    921.27348   -1022.5523    -10257691     175744.8    -10090946    30.126939    30.126939    59.808041    83.530381  -0.22255417 
   53600    -10080443    924.34722   -186.34562    -10256774    176331.16    -10082083    23.256419    23.256419    59.807841    83.526136  -0.22406317 
   53800    -10080506    923.62185   -515.76181    -10256699    176192.78    -10085047   -17.311855   -17.311855    59.807641    83.398064  -0.22540792 
   54000    -10082138    919.08403   -154.15091    -10257465    175327.13    -10083494    16.209663    16.209663    59.807441     83.62233  -0.22883028 
   54200    -10081233    926.50601    327.69949    -10257976    176742.97    -10078351    55.676437    55.676437    59.807241    83.602237   -0.2285438 
   54400    -10080263    923.14074    355.99464    -10256364    176101.01    -10077131    12.156199    12.156199    59.807041    83.590655  -0.22724948 
   54600    -10081734    920.21348   -1166.9422    -10257276    175542.59    -10092007    -40.33743    -40.33743    59.806841    83.301633  -0.22594732 
   54800    -10081621    915.25145    -5.061649    -10256217    174596.02    -10081666    12.170165    12.170165    59.806641    83.425194  -0.22456335 
   55000    -10080180    919.60133   -1725.9356    -10255605    175425.82    -10095384   -6.1162725   -6.1162725    59.806441    83.439399  -0.22215053 
   55200    -10081211    920.91211    -1140.862    -10256887    175675.87    -10091255    19.729072    19.729072    59.806241    83.348541  -0.22007341 
   55400    -10081952    919.02701    174.78349    -10257268    175316.26    -10080415    30.201654    30.201654    59.806041    83.542084  -0.21784538 
   55600    -10080343    924.56842    270.89853    -10256717    176373.35    -10077960    40.095624    40.095624    59.805841    83.661389  -0.21624901 
   55800    -10080504    926.28433    -1735.489    -10257204    176700.69    -10095787   -7.8399781   -7.8399781    59.805641    83.451351  -0.21611136 
   56000    -10082279    922.70638    510.01493    -10258297    176018.15    -10077794    3.7577796    3.7577796    59.805441    83.400628  -0.21467561 
   56200    -10081045    920.06457    439.95437    -10256559    175514.19    -10077175   -35.803811   -35.803811    59.805241     83.44669  -0.21564124 
   56400    -10080204    920.20331   -493.31458    -10255744    175540.65    -10084547    14.870176    14.870176    59.805041    83.661131  -0.21563281 
   56600    -10081917    918.66794    55.646174    -10257165    175247.76    -10081428    36.713462    36.713462    59.804841    83.467666  -0.21488237 
   56800    -10081599    919.05941   -722.82846    -10256921    175322.44    -10087961   -40.109217   -40.109217    59.804641    83.367628  -0.21572446 
   57000    -10080007    927.22769    1433.1047    -10256888    176880.64    -10067409   -46.262971   -46.262971    59.804441    83.425326  -0.21879213 
   57200    -10081372    923.72018   -529.95698    -10257583    176211.54    -10086035   -27.234744   -27.234744    59.804241    83.572563  -0.22079128 
   57400    -10082051    925.37724   -327.40939    -10258579    176527.65    -10084931     13.51638     13.51638    59.804041    83.663738  -0.22357693 
   57600    -10080219     923.9645   -449.92428    -10256477    176258.15    -10084179   -34.241654   -34.241654    59.803841    83.539172  -0.22650517 
   57800    -10080534    924.37625    143.76752    -10256871    176336.69    -10079269   -27.835893   -27.835893    59.803641    83.370756  -0.22821614 
   58000    -10082189    921.18791   -477.08405    -10257918    175728.48    -10086387   -37.541532   -37.541532    59.803441    83.331114  -0.23054682 
   58200    -10080804    925.66762   -81.370174    -10257387    176583.04    -10081520    27.954604    27.954604    59.803241    83.576962  -0.23255303 
   58400    -10080130    925.03306    381.47013    -10256592    176461.99    -10076774   -9.8226917   -9.8226917    59.803041    83.420735  -0.23423109 
   58600    -10082150    917.22803    7.1063667    -10257123    174973.08    -10082087    2.0726972    2.0726972    59.802841     83.44066  -0.23482308 
   58800    -10081453    920.10256    626.04263    -10256975    175521.43    -10075946   -6.1909305   -6.1909305    59.802641    83.435578   -0.2356966 
   59000    -10079751    928.88322   -536.51158    -10256948    177196.46    -10084474   -2.1253339   -2.1253339    59.802441    83.494459  -0.23404335 
   59200    -10081351    920.35048   -80.996035    -10256920    175568.73    -10082064     5.461701     5.461701    59.802241    83.455523   -0.2316489 
   59400    -10082165     919.9713    143.11301    -10257661    175496.39    -10080906    23.752016    23.752016    59.802041    83.538302  -0.22853293 
   59600    -10079973    925.14113   -289.21277    -10256455    176482.61    -10082518   -12.874932   -12.874932    59.801841    83.383186  -0.22840475 
   59800    -10080647     921.4633   -527.53718    -10256428    175781.01    -10085291     57.42708     57.42708    59.801641    83.549111  -0.22548127 
   60000    -10082354    919.22007    129.64313    -10257707    175353.09    -10081213    51.737969    51.737969    59.801441    83.528541  -0.22336672 
   60200    -10080846    919.42586    1092.7546    -10256238    175392.34    -10071235    -10.86356    -10.86356    59.801241    83.397291  -0.22421466 
   60400    -10080222    924.13253    604.60771    -10256512     176290.2    -10074903   -6.1442567   -6.1442567    59.801041    83.363885  -0.22552083 
   60600    -10082293     922.5748   -837.72462    -10258286    175993.04    -10089666     3.975626     3.975626    59.800841    83.436744  -0.22497824 
   60800    -10081407    923.60349     1172.875    -10257597    176189.28    -10071095    34.973835    34.973835    59.800641    83.573683  -0.22402382 
   61000    -10079759    922.16002   -699.95624    -10255673    175913.92    -10085922    34.043555    34.043555    59.800441    83.316959  -0.22188502 
   61200    -10081749     924.2895    813.36799    -10258069    176320.15    -10074598    36.436096    36.436096    59.800241     83.56675  -0.22393669 
   61400    -10082195    917.10331   -1015.2055    -10257144    174949.29    -10091131  -0.58844942  -0.58844942    59.800041    83.550106  -0.22408913 
   61600    -10079609    930.19361   -484.76967    -10257055    177446.43    -10083876    1.4870731    1.4870731    59.799841    83.550089  -0.22568177 
   61800    -10080950    924.14054   -384.07309    -10257242    176291.73    -10084330    -5.692033    -5.692033    59.799641    83.495193  -0.22907389 
   62000    -10082562    920.79892   -25.323843    -10258216    175654.27    -10082785   -18.930733   -18.930733    59.799441    83.419997  -0.23234393 
   62200    -10080228    927.46408    716.35542    -10257154    176925.74    -10073928    22.435083    22.435083    59.799241     83.30183  -0.23394066 
   62400    -10080051    923.86374    802.68614    -10256290    176238.93    -10072992    4.3474188    4.3474188    59.799041    83.469686  -0.23526889 
   62600    -10082571    918.62592   -204.90391    -10257811    175239.75    -10084374   -48.028644   -48.028644    59.798841    83.303422  -0.23708743 
   62800    -10081346     921.1495   -122.79954    -10257067    175721.15    -10082427   0.74749025   0.74749025    59.798641    83.552984  -0.23794434 
   63000    -10079517    928.15679    918.37793    -10256575    177057.88    -10071439    -3.260861    -3.260861    59.798441    83.349397  -0.23591815 
   63200    -10081959    920.85932   -959.14439    -10257625     175665.8    -10090401   -33.589992   -33.589992    59.798241    83.332966  -0.23593056 
   63400    -10082028    917.83037    307.77828    -10257116    175087.98    -10079321    41.413315    41.413315    59.798041    83.419832  -0.23343539 
   63600    -10079760    925.80885    831.93079    -10256370    176609.98    -10072443    39.244062    39.244062    59.797841    83.489259  -0.23043301 
   63800    -10081027    920.79573   -399.32628    -10256681    175653.66    -10084541   -32.128964   -32.128964    59.797641    83.377469  -0.22929365 
   64000    -10082349    918.82595    727.79515    -10257627     175277.9    -10075948   -1.7126952   -1.7126952    59.797441    83.328687  -0.22806932 
   64200    -10080220    926.13411   -667.68119    -10256892    176672.03    -10086097   -2.3906274   -2.3906274    59.797241    83.434057  -0.22622181 
   64400    -10080214    923.79156    578.65923    -10256439    176225.16    -10075123     31.88408     31.88408    59.797041    83.470939  -0.22301236 
   64600    -10082502    920.08615    1023.2186    -10258020     175518.3    -10073506    8.7592523    8.7592523    59.796841    83.502873  -0.22175085 
   64800    -10081140    922.04146   -104.73019    -10257031     175891.3    -10082061    6.5625424    6.5625424    59.796641    83.566018  -0.22081857 
   65000    -10079698    929.26224     1343.613    -10256967    177268.76    -10067884  -0.15920916  -0.15920916    59.796441    83.490522  -0.22115409 
   65200    -10082129    919.98585   -478.33203    -10257628    175499.17    -10086338   -5.9551705   -5.9551705    59.796241    83.457603  -0.22126081 
   65400    -10081947    924.55366    31.626956    -10258317    176370.54    -10081669    5.3859006    5.3859006    59.796041    83.515295  -0.22179664 
   65600    -10079681     927.4217    764.92522    -10256599    176917.65    -10072953     10.61758     10.61758    59.795841    83.296476  -0.22185513 
   65800    -10081100    921.39846    264.02138    -10256868    175768.64    -10078777   -58.121287   -58.121287    59.795641    83.483863   -0.2232849 
   66000    -10082270    922.84432   -749.68253    -10258314    176044.46    -10088866   -60.835355   -60.835355    59.795441    83.341202  -0.22722068 
   66200    -10080234    927.93923    62.235034    -10257251    177016.38    -10079687   -51.359716   -51.359716    59.795241     83.29611  -0.23104857 
   66400    -10080263    923.01973     -368.041    -10256341    176077.92    -10083502    29.609326    29.609326    59.795041    83.468051  -0.23153424 
   66600    -10082289    920.36196    204.70486    -10257860    175570.92    -10080489   -26.054803   -26.054803    59.794841    83.381902   -0.2326043 
   66800    -10081225    923.27309   -957.50254    -10257352    176126.25    -10089655    -61.56199    -61.56199    59.794641    83.365205   -0.2340634 
   67000    -10079888    924.45791    -79.75978    -10256240    176352.27    -10080590    34.302484    34.302484    59.794441    83.456629  -0.23358496 
   67200    -10081925    923.11873     112.0393    -10258022    176096.81    -10080940    38.625625    38.625625    59.794241    83.508122  -0.23260733 
   67400    -10081761    925.44082    797.31059    -10258301    176539.78    -10074751   -1.0440414   -1.0440414    59.794041    83.535048  -0.23100949 
   67600    -10080126    919.77624   -110.05056    -10255585    175459.18    -10081095    25.574243    25.574243    59.793841    83.575152  -0.23112516 
   67800    -10081055    923.94876   -406.60032    -10257310    176255.15    -10084633    69.972664    69.972664    59.793641    83.632546  -0.22865765 
   68000    -10082083    922.62312     469.1572    -10258086    176002.26    -10077958    34.956466    34.956466    59.793441    83.539673   -0.2268627 
   68200    -10080420    922.93605    531.68795    -10256482    176061.96    -10075743   -1.7447031   -1.7447031    59.793241    83.358431  -0.22464739 
   68400    -10080282    920.48356    36.340368    -10255876    175594.11    -10079962   -1.6771162   -1.6771162    59.793041    83.442959  -0.22451721 
   68600    -10081982    923.76019    1214.0784    -10258202    176219.17    -10071311    32.973363    32.973363    59.792841    83.598193  -0.22317389 
   68800    -10081234    920.01556   -93.355239    -10256739    175504.84    -10082056    6.4718471    6.4718471    59.792641     83.58729  -0.22136206 
   69000    -10079873      927.028    447.02876    -10256715    176842.55    -10075940    6.9559401    6.9559401    59.792441    83.366647  -0.22113274 
   69200    -10081847     925.8195    818.42255    -10258459    176612.01    -10074653    -27.70134    -27.70134    59.792241    83.303204  -0.22015584 
   69400    -10081802     922.3014   -521.62558    -10257743    175940.89    -10086392   -39.762803   -39.762803    59.792041    83.343549  -0.21971913 
   69600    -10080069     924.7553   -133.39545    -10256478       176409    -10081243   -27.463868   -27.463868    59.791841    83.530412   -0.2197315 
   69800    -10081312    922.29947   -126.45506    -10257253    175940.52    -10082425   -24.554213   -24.554213    59.791641    83.505846   -0.2186641 
   70000    -10081907    922.30951    -603.9581    -10257849    175942.44    -10087222   -16.714819   -16.714819    59.791441    83.469695  -0.22090749 
   70200    -10080241    929.40477    325.89591    -10257537    177295.95    -10077374   -16.889124   -16.889124    59.791241    83.473689  -0.22318083 
   70400    -10080690    925.40701    639.64613    -10257223    176533.33    -10075065   -7.0067301   -7.0067301    59.791041    83.477898  -0.22552505 
   70600    -10082155     917.3199   -206.04417    -10257146    174990.61    -10083968   -7.6799632   -7.6799632    59.790841    83.455614  -0.22918984 
   70800    -10080917    926.85264    -613.5928    -10257726     176809.1    -10086316   -14.821703   -14.821703    59.790641    83.471989   -0.2288451 
   71000    -10080083    924.19311    510.92498    -10256384    176301.76    -10075587  -0.69493113  -0.69493113    59.790441    83.496889  -0.22928608 
   71200    -10081876    917.63249   -252.34775    -10256926    175050.24    -10084096    20.052028    20.052028    59.790241    83.571739  -0.22861479 
   71400    -10081806    922.37833    606.43964    -10257762    175955.57    -10076473     40.16718     40.16718    59.790041    83.440963  -0.22753812 
   71600    -10080196    925.34455   -390.45098    -10256717    176521.41    -10083632    6.2462428    6.2462428    59.789841    83.543308   -0.2280963 
   71800    -10080995     922.2644   -30.972901    -10256929    175933.83    -10081267   -21.643106   -21.643106    59.789641    83.407231  -0.22838025 
   72000    -10082096    919.43202    915.35188    -10257489    175393.52    -10074046    35.146156    35.146156    59.789441    83.582404   -0.2279671 
   72200    -10080433    924.27412   -1414.1784    -10256750    176317.21    -10092885    -26.01809    -26.01809    59.789241    83.412248  -0.22604856 
   72400    -10080423    925.76207   -400.73767    -10257024    176601.06    -10083949    24.673252    24.673252    59.789041    83.342327  -0.22437437 
   72600    -10082015    918.13963   -1231.0828    -10257162    175146.98    -10092851   -14.700356   -14.700356    59.788841    83.604992  -0.22255028 
   72800    -10081284    926.60376   -696.69072    -10258046    176761.62    -10087415   -32.761928   -32.761928    59.788641    83.405354  -0.22063806 
   73000    -10079954    927.87883   -77.466075    -10256959    177004.86    -10080635    31.124855    31.124855    59.788441    83.463433  -0.21813617 
   73200    -10081702     921.7823    532.53681    -10257544    175841.87    -10077018    23.612485    23.612485    59.788241    83.397379  -0.21570471 
   73400    -10081895    920.59201     422.9909    -10257509     175614.8    -10078174    34.158807    34.158807    59.788041    83.355927  -0.21270288 
   73600    -10080112    925.21907    710.75384    -10256610    176497.47    -10073860   -14.029017   -14.029017    59.787841    83.410848  -0.21247207 
   73800    -10081050    925.37773   -691.25398    -10257578    176527.74    -10087132   -64.127754   -64.127754    59.787641    83.543845  -0.21474385 
   74000    -10082389    921.61886   -580.17291    -10258200    175810.69    -10087494   -59.948852   -59.948852    59.787441    83.183928  -0.21716455 
   74200    -10080583    924.03255   -836.44452    -10256854    176271.13    -10087945    55.747999    55.747999    59.787241    83.566592  -0.21747261 
   74400    -10080254    923.94746   -442.40136    -10256509     176254.9    -10084148     10.43545     10.43545    59.787041    83.360586  -0.21968475 
   74600    -10082245     920.6221    -651.2022    -10257865    175620.54    -10087974    -41.09935    -41.09935    59.786841    83.389233  -0.22124379 
   74800    -10081274     920.0349   -617.00539    -10256782    175508.53    -10086704   -13.598042   -13.598042    59.786641    83.505579  -0.22704424 
   75000    -10079786    927.42746    499.87949    -10256705    176918.75    -10075388    9.6038727    9.6038727    59.786441    83.573632  -0.22696547 
   75200    -10081558    918.01639    -807.9581    -10256682    175123.47    -10088670    36.987306    36.987306    59.786241    83.350443   -0.2256538 
   75400    -10082114    924.40611    781.11912    -10258456    176342.39    -10075248     -38.3281     -38.3281    59.786041    83.424487  -0.22674088 
   75600    -10079975    924.79512    -246.8009    -10256391     176416.6    -10082146   -49.060931   -49.060931    59.785841    83.371797  -0.22830577 
   75800    -10080965    923.70703    1062.0426    -10257174    176209.03    -10071625    29.766037    29.766037    59.785641    83.503068  -0.23059539 
   76000    -10082265    919.87929   -742.32902    -10257744    175478.84    -10088797    64.475992    64.475992    59.785441    83.600152  -0.23077587 
   76200    -10080579    921.30243   -757.35323    -10256329    175750.32    -10087246    4.5503097    4.5503097    59.785241    83.562831  -0.23037785 
   76400    -10080206    925.49442   -42.858124    -10256756       176550    -10080583   -2.6789316   -2.6789316    59.785041    83.361626  -0.22978371 
   76600    -10082390    916.13345   -1134.9495    -10257154    174764.27    -10092381    25.939558    25.939558    59.784841    83.560499  -0.22739316 
   76800    -10081180    923.27875    1050.8871    -10257307    176127.33    -10071939   -0.6094034   -0.6094034    59.784641     83.42096  -0.22512624 
   77000    -10079780    926.08564    899.34203    -10256443    176662.78    -10071870   -10.326678   -10.326678    59.784441    83.386367  -0.22312702 
   77200    -10081834    921.81924    25.633105    -10257683    175848.91    -10081608    36.777215    36.777215    59.784241    83.632763  -0.22121217 
   77400    -10081780    919.91443   -269.77714    -10257266    175485.55    -10084154    50.258504    50.258504    59.784041    83.492755  -0.21888589 
   77600    -10079693    929.63479    614.07819    -10257032    177339.83    -10074291    44.774967    44.774967    59.783841     83.60426  -0.21497938 
   77800    -10081140    925.74731    330.11048    -10257738    176598.24    -10078237    20.969039    20.969039    59.783641    83.558769  -0.21279464 
   78000    -10082529    920.51219   -1409.4359    -10258129    175599.58    -10094935   -30.214666   -30.214666    59.783441    83.449634  -0.21339785 
   78200    -10080101    923.50795   -682.65602    -10256272    176171.06    -10086109   -25.285974   -25.285974    59.783241    83.586695  -0.21532569 
   78400    -10080485    927.58649   -621.94993    -10257434    176949.09    -10085958   -9.3106509   -9.3106509    59.783041     83.67018  -0.21534945 
   78600    -10082566    917.50085     830.1602    -10257591    175025.12    -10075267   -30.461532   -30.461532    59.782841    83.428238  -0.21634132 
   78800    -10080761    927.64893    3.0889909    -10257722       176961    -10080734    4.7232714    4.7232714    59.782641    83.562876  -0.21776852 
   79000    -10079792     929.8837    -320.0135    -10257179    177387.31    -10082608    42.521627    42.521627    59.782441    83.639532  -0.22015542 
   79200    -10082154     918.2328    22.333108    -10257319    175164.75    -10081958   -1.3017514   -1.3017514    59.782241    83.555855  -0.22124193 
   79400    -10081555    925.76927    668.52102    -10258157    176602.43    -10075677   -47.397679   -47.397679    59.782041    83.468263  -0.22212827 
   79600    -10079536    927.55454    498.88062    -10256479       176943    -10075147   -23.358022   -23.358022    59.781841    83.321745  -0.22428541 
   79800    -10081745    917.71437   -374.33466    -10256810    175065.85    -10085039   -2.4773416   -2.4773416    59.781641    83.536958  -0.22542231 
   80000    -10082269    919.66349    275.85659    -10257707    175437.67    -10079843     44.77117     44.77117    59.781441    83.347903  -0.22628086 
   80200    -10079834    923.73686    264.36002    -10256049    176214.72    -10077508   -37.600842   -37.600842    59.781241    83.439106  -0.22700912 
   80400    -10080678    924.94002   -1006.8567    -10257122    176444.24    -10089541   -20.695631   -20.695631    59.781041    83.575989  -0.22917115 
   80600    -10082695     919.4261    1672.8166    -10258088    175392.39    -10067994    24.029609    24.029609    59.780841     83.60144  -0.22679407 
   80800    -10080797    921.22522    628.12222    -10256533    175735.59    -10075272   -37.212594   -37.212594    59.780641    83.390137   -0.2252816 
   81000    -10079836    928.23074    1351.6601    -10256908    177071.99    -10067950    28.435679    28.435679    59.780441    83.495363  -0.22419303 
   81200    -10082231    916.10202   -620.26934    -10256989    174758.28    -10087690    46.086675    46.086675    59.780241    83.480231  -0.22048961 
   81400    -10081465    919.70369   -314.11853    -10256910    175445.34    -10084229    25.100937    25.100937    59.780041    83.505859  -0.21866641 
   81600    -10079837    928.69294   -862.63502    -10256998    177160.16    -10087431    31.672389    31.672389    59.779841     83.40563  -0.21559629 
   81800    -10081614    922.74069    96.348298    -10257638    176024.69    -10080766   -6.0827342   -6.0827342    59.779641    83.500837  -0.21296206 
   82000    -10081891    921.91871    157.22025    -10257759    175867.89    -10080508   -16.872354   -16.872354    59.779441    83.434252  -0.21277961 
   82200    -10079910    924.79385    102.98591    -10256327    176416.36    -10079004   -24.581066   -24.581066    59.779241    83.498209  -0.21340753 
   82400    -10081148    922.05075   -892.70078    -10257041    175893.08    -10089005    71.384912    71.384912    59.779041    83.575554  -0.21331789 
   82600    -10082434    919.82152    309.03913    -10257901    175467.82    -10079715   -6.9937078   -6.9937078    59.778841     83.45936  -0.21345921 
   82800    -10080322     921.9473   -494.61517    -10256195    175873.34    -10084676    20.744535    20.744535    59.778641    83.502937  -0.21510583 
   83000    -10080379    926.28513    859.86638    -10257080    176700.84    -10072818   -33.881914   -33.881914    59.778441    83.348931  -0.21424367 
   83200    -10082342    920.65172   -765.07405    -10257968    175626.19    -10089074    -49.17578    -49.17578    59.778241    83.384359  -0.21580774 
   83400    -10081007    925.98281   -136.03485    -10257650    176643.17    -10082203    16.848008    16.848008    59.778041    83.450261  -0.21623043 
   83600    -10079916    928.47687     48.86339    -10257035    177118.94    -10079486    11.058525    11.058525    59.777841    83.543118  -0.21830597 
   83800    -10081775    920.72604    477.68534    -10257415    175640.37    -10077573   -26.735101   -26.735101    59.777641    83.450788  -0.22025273 
   84000    -10081864     916.6415    20.510446    -10256725    174861.19    -10081684   -26.955092   -26.955092    59.777441     83.32462  -0.22334713 
   84200    -10080025    925.14309    1211.5674    -10256508    176482.98    -10069370    6.7172502    6.7172502    59.777241    83.264621  -0.22504807 
   84400    -10080825    924.50252   -725.15004    -10257186    176360.78    -10087208     -7.65048     -7.65048    59.777041    83.439756  -0.22737777 
   84600    -10082383    923.13563   -4.8983799    -10258483    176100.03    -10082426   -6.0398936   -6.0398936    59.776841    83.372852  -0.22767141 
   84800    -10080552    923.36947   -272.50872    -10256696    176144.64    -10082950   -26.147562   -26.147562    59.776641     83.40168  -0.22698222 
   85000    -10080054     926.0148   -215.64039    -10256703    176649.27    -10081951    11.726142    11.726142    59.776441    83.477979  -0.22568234 
   85200    -10082323    919.56995   -57.692655    -10257742    175419.83    -10082830    22.647707    22.647707    59.776241    83.414061  -0.22337094 
   85400    -10081378    925.52751   -1314.1576    -10257935    176556.31    -10092947     11.69963     11.69963    59.776041    83.551952  -0.22037446 
   85600    -10079593      930.376    405.86102    -10257075    177481.22    -10076023    4.7876923    4.7876923    59.775841    83.442192  -0.21675862 
   85800    -10081777     919.2112   -524.37632    -10257129     175351.4    -10086393    7.5067739    7.5067739    59.775641    83.532051  -0.21484634 
   86000    -10081912    920.94826    409.29212    -10257594    175682.76    -10078312   -31.458815   -31.458815    59.775441    83.324172  -0.21428796 
   86200    -10079954    925.18115   -389.93603    -10256444    176490.24    -10083387    5.2610491    5.2610491    59.775241    83.366075  -0.21370306 
   86400    -10081120     924.3285    218.84099    -10257448    176327.59    -10079195   -14.080434   -14.080434    59.775041    83.211059  -0.21244279 
   86600    -10082212    921.39676   -183.71631    -10257981    175768.32    -10083828    -23.75136    -23.75136    59.774841     83.31663  -0.21092904 
   86800    -10080374    926.74448   -361.71255    -10257162    176788.46    -10083557   -19.773709   -19.773709    59.774641    83.411704  -0.21091015 
   87000    -10080532    921.60311   -1492.6219    -10256340    175807.68    -10093678   -18.531116   -18.531116    59.774441    83.465725   -0.2104251 
   87200    -10082143    918.56716    169.42689    -10257371    175228.54    -10080653   -4.5184063   -4.5184063    59.774241    83.453963  -0.20866193 
   87400    -10080884    927.08765   -355.80345    -10257738    176853.93    -10084015   -29.950014   -29.950014    59.774041    83.507947  -0.20910748 
   87600    -10079909    926.85888    96.778263    -10256720    176810.29    -10079058   -15.184964   -15.184964    59.773841    83.372332  -0.21112953 
   87800    -10082013    919.00246   -168.34295    -10257324    175311.58    -10083494   -12.402957   -12.402957    59.773641     83.44462  -0.21368687 
   88000    -10081730    922.56538    193.53425    -10257722    175991.25    -10080028   -25.427391   -25.427391    59.773441    83.432222   -0.2147124 
   88200    -10079654    931.28847    1439.7933    -10257309    177655.29    -10066996   -13.216086   -13.216086    59.773241    83.597672  -0.21795466 
   88400    -10081404    924.87955   -1167.4507    -10257837    176432.71    -10091680    24.209529    24.209529    59.773041    83.513613  -0.22091602 
   88600    -10082326    918.52169   -65.778425    -10257546    175219.86    -10082905    49.056937    49.056937    59.772841    83.430916  -0.22055137 
   88800    -10079974    929.93757   -76.116973    -10257371    177397.59    -10080643    -5.219463    -5.219463    59.772641    83.286894  -0.21882843 
   89000    -10080643    931.49537   -723.19292    -10258338    177694.76    -10087006    -40.22335    -40.22335    59.772441    83.436166  -0.21820671 
   89200    -10082612    920.05394    6.8876898    -10258124    175512.16    -10082552    -19.30139    -19.30139    59.772241    83.347632  -0.21822383 
   89400    -10080480    923.49781   -871.98335    -10256650    176169.12    -10088157    32.150775    32.150775    59.772041    83.440305  -0.21607857 
   89600    -10079966    928.39813     492.8894    -10257070    177103.92    -10075630   -1.0727485   -1.0727485    59.771841    83.379357  -0.21259647 
   89800    -10082582    915.67034    638.95491    -10257258    174675.93    -10076963    37.491719    37.491719    59.771641    83.421609  -0.21103966 
   90000    -10081164    920.08882    -743.0857    -10256682    175518.81    -10087704    20.385552    20.385552    59.771441    83.511419  -0.21022751 
   90200    -10079627    926.40891    -615.7541    -10256352    176724.45    -10085048    22.605257    22.605257    59.771241    83.449321  -0.20499946 
   90400    -10081934    919.47457   -525.31016    -10257335    175401.64    -10086556    48.547484    48.547484    59.771041    83.638055  -0.20253333 
   90600    -10081950    921.80471    128.85861    -10257796    175846.14    -10080816   -8.8111008   -8.8111008    59.770841    83.422943  -0.20083871 
   90800    -10079836    927.89913     496.2665    -10256845    177008.73    -10075471   -36.145057   -36.145057    59.770641    83.340369  -0.19957781 
   91000    -10081279    922.48168     45.86625    -10257254    175975.28    -10080875   0.32705207   0.32705207    59.770441     83.29916  -0.19639131 
   91200    -10082106    922.47804   -373.62989    -10258081    175974.59    -10085394    22.616558    22.616558    59.770241    83.536932  -0.19505827 
   91400    -10080121    926.54084    61.048291    -10256870    176749.62    -10079583    63.972165    63.972165    59.770041    83.577441  -0.19533897 
   91600    -10080769     926.1071   -544.29209    -10257436    176666.88    -10085559    15.966654    15.966654    59.769841    83.734055  -0.19418751 
   91800    -10082435    921.22904    554.88936    -10258171    175736.32    -10077556   -21.983243   -21.983243    59.769641    83.318648  -0.19439016 
   92000    -10080491    926.77884   -558.28639    -10257286    176795.02    -10085405   -78.258213   -78.258213    59.769441    83.270449  -0.19668367 
   92200    -10080015    928.87464    658.56905    -10257210    177194.82    -10074223    4.4314274    4.4314274    59.769241    83.466512  -0.19967835 
   92400    -10082171    923.69134    302.93298    -10258377    176206.04    -10079507    18.394826    18.394826    59.769041     83.46336  -0.20048727 
   92600    -10081088    923.48433   -759.97856    -10257254    176166.55    -10087776    31.684186    31.684186    59.768841    83.466885  -0.20220959 
   92800    -10079937    923.73761    243.98154    -10256152    176214.87    -10077790   -19.023833   -19.023833    59.768641     83.50824  -0.20346396 
   93000    -10081477    922.32526    212.19991    -10257423    175945.44    -10079611    9.8424505    9.8424505    59.768441    83.489931  -0.20298067 
   93200    -10082003    924.29144   -127.47727    -10258323    176320.52    -10083124  -0.79219261  -0.79219261    59.768241    83.365293  -0.20174323 
   93400    -10080230    922.53419    266.33077    -10256215     175985.3    -10077887    10.618375    10.618375    59.768041    83.604639  -0.20057259 
   93600    -10080643    924.95876    268.77781    -10257091    176447.82    -10078278   0.93775362   0.93775362    59.767841    83.534671   -0.1992923 
   93800    -10082440    918.28183    385.40451    -10257614    175174.11    -10079050   -18.130656   -18.130656    59.767641    83.440343  -0.19821004 
   94000    -10080701     920.0388    -684.8284    -10256211    175509.27    -10086731   -26.552451   -26.552451    59.767441    83.309769  -0.19629948 
   94200    -10079893    925.37029   -557.64261    -10256420    176526.32    -10084802    12.585801    12.585801    59.767241    83.384525  -0.19435245 
   94400    -10082268    921.17032    95.252544    -10257993    175725.12    -10081430    20.192088    20.192088    59.767041    83.572259  -0.19191414 
   94600    -10081418    923.62477   -145.38116    -10257611    176193.34    -10082697    58.704104    58.704104    59.766841    83.662134  -0.18935248 
   94800    -10079708    926.89409    177.22812    -10256525       176817    -10078148    38.704929    38.704929    59.766641    83.479051   -0.1883589 
   95000    -10081709    919.26593   -359.65467    -10257071    175361.84    -10084874   -10.324466   -10.324466    59.766441    83.384996   -0.1839024 
   95200    -10082107    926.31391     690.9995    -10258813    176706.33    -10076033   -21.151062   -21.151062    59.766241    83.313516  -0.18283461 
   95400    -10079760    923.37987   -802.01593    -10255907    176146.62    -10086821    28.205263    28.205263    59.766041     83.61684  -0.18091791 
   95600    -10080979    922.78473    155.80814    -10257012    176033.09    -10079608    22.639628    22.639628    59.765841    83.507307   -0.1797631 
   95800    -10082612    925.89939   -417.97579    -10259239    176627.25    -10086289    28.776028    28.776028    59.765641    83.518043  -0.17882364 
   96000    -10080201    922.18582    25.308012    -10256120    175918.84    -10079979   -22.185321   -22.185321    59.765441    83.414218  -0.17960029 
   96200    -10080354    924.30947    311.69859    -10256678    176323.96    -10077612   -36.170253   -36.170253    59.765241    83.309419  -0.17992911 
   96400    -10082456    920.23177    22.330552    -10258002    175546.08    -10082260   -26.020387   -26.020387    59.765041    83.465224  -0.18180853 
   96600    -10080766    922.63711   -728.65101    -10256771    176004.93    -10087180    40.460873    40.460873    59.764841    83.477697  -0.18516064 
   96800    -10079992     923.2727   -323.40572    -10256118    176126.18    -10082838    31.314142    31.314142    59.764641    83.470578  -0.18626909 
   97000    -10082272    920.97953    289.71055    -10257961    175688.73    -10079724    19.516359    19.516359    59.764441    83.552115  -0.18836563 
   97200    -10081354    924.51316   -166.80858    -10257716    176362.81    -10082821   -32.683856   -32.683856    59.764241    83.416601  -0.19027896 
   97400    -10079695     929.4726    194.90086    -10257004    177308.89    -10077981   -57.736755   -57.736755    59.764041    83.489746  -0.19188585 
   97600    -10081961    922.05278   -106.57722    -10257855    175893.46    -10082899   -10.137743   -10.137743    59.763841    83.452837  -0.19079902 
   97800    -10081979    924.80154    1343.3804    -10258397    176417.82    -10070171    14.978439    14.978439    59.763641    83.454044  -0.18890816 
   98000    -10079755    922.91233   -411.57656    -10255813    176057.43    -10083379    9.8429341    9.8429341    59.763441    83.488034  -0.18835537 
   98200    -10081164    925.91816    55.496785    -10257795    176630.83    -10080676     31.32031     31.32031    59.763241    83.463946  -0.18688095 
   98400    -10082494    924.66734    232.82662    -10258887    176392.22    -10080447    29.162532    29.162532    59.763041    83.465532  -0.18695695 
   98600    -10080090    927.89964   -217.49959    -10257098    177008.83    -10082003    33.014909    33.014909    59.762841    83.470473  -0.18479101 
   98800    -10080372    928.41611    260.08915    -10257479    177107.35    -10078084    15.748235    15.748235    59.762641    83.533672  -0.18102179 
   99000    -10082444    920.81871    357.95065    -10258102    175658.05    -10079296    8.9882741    8.9882741    59.762441    83.397268  -0.17815274 
   99200    -10080927    922.56722   -202.33785    -10256919     175991.6    -10082708    1.5006136    1.5006136    59.762241    83.393334   -0.1743873 
   99400    -10079742    926.99156   -312.86919    -10256578     176835.6    -10082496   -1.7312478   -1.7312478    59.762041    83.446746  -0.17207599 
   99600    -10081952    916.41038    237.55826    -10256769     174817.1    -10079862   -45.443301   -45.443301    59.761841    83.236577  -0.17087798 
   99800    -10081905    922.93366   -311.61955    -10257967     176061.5    -10084647   -30.941809   -30.941809    59.761641    83.333789  -0.17017263 
  100000    -10079808    925.56069   -763.83334    -10256370    176562.64    -10086533    5.6301543    5.6301543    59.761441    83.532106  -0.17101411 
  100200    -10081159    923.54938    450.14799    -10257338    176178.96    -10077200    24.625958    24.625958    59.761241      83.3639   -0.1719319 
  100400    -10082495     920.0805   -522.30931    -10258012    175517.22    -10087090    15.515639    15.515639    59.761041    83.498722  -0.17067882 
  100600    -10080273    926.59794   -34.920779    -10257033    176760.51    -10080580   -39.237224   -39.237224    59.760841    83.406394  -0.17225245 
  100800    -10080128    924.69925   -295.51761    -10256526    176398.31    -10082728   -16.003183   -16.003183    59.760641    83.380327  -0.17424916 
  101000    -10082464    918.87964    348.57275    -10257752    175288.15    -10079398    9.8225438    9.8225438    59.760441    83.596916  -0.17538599 
  101200    -10081085    923.75036    372.76222    -10257302     176217.3    -10077807   -17.884307   -17.884307    59.760241    83.315186  -0.17600836 
  101400    -10079691    928.63209   -337.66042    -10256839    177148.55    -10082662    13.522868    13.522868    59.760041    83.493055  -0.17653945 
  101600    -10081886    920.73789   -3.7549778    -10257528    175642.63    -10081919   -8.6900246   -8.6900246    59.759841    83.350237  -0.17766807 
  101800    -10081751    925.75056   -698.39932    -10258350    176598.86    -10087896  -0.85936803  -0.85936803    59.759641    83.460621  -0.17773341 
[...]
 2475800    -10079939    929.92726    306.55032    -10257334    177395.62    -10077242    26.761261    26.761261    57.385641    80.765134    8.6847932 
 2476000    -10081696    923.05957   -343.39162    -10257782    176085.52    -10084717   -13.872906   -13.872906    57.385441    80.750844    8.6921238 
 2476200    -10080833     923.7825    -549.2228    -10257056    176223.43    -10085667   -11.752073   -11.752073    57.385241    80.655889     8.698832 
 2476400    -10080049     925.1757    247.38055    -10256538     176489.2    -10077873     30.15292     30.15292    57.385041    80.680916    8.7069383 
 2476600    -10081417    918.39194   -652.66716    -10256612    175195.11    -10087160    20.748417    20.748417    57.384841    80.793342    8.7128598 
 2476800    -10081051    924.28544   -114.69374    -10257370    176319.37    -10082060    117.74206    117.74206    57.384641    81.009869     8.721492 
 2477000    -10079220    930.15377    177.52674    -10256659    177438.83    -10077658    120.59419    120.59419    57.384441    80.849655      8.73115 
 2477200    -10081241    921.41264   -204.68602    -10257012    175771.35    -10083042    42.694653    42.694653    57.384241    80.641926    8.7391373 
 2477400    -10081146    924.20663   -264.01145    -10257450    176304.34    -10083469   -28.108879   -28.108879    57.384041     80.65337    8.7471734 
 2477600    -10079637    929.49545    774.93674    -10256950    177313.25    -10072821    2.9886183    2.9886183    57.383841    80.746573    8.7546255 
 2477800    -10081331    922.34869   -1071.0785    -10257281    175949.91    -10090758    100.64487    100.64487    57.383641    80.919014    8.7632414 
 2478000    -10081568    918.47412   -4.8835765    -10256779    175210.79    -10081611    68.797718    68.797718    57.383441    80.741205    8.7718289 
 2478200    -10079978    924.28748   -1032.3214    -10256297    176319.76    -10089066    44.598502    44.598502    57.383241    80.706701    8.7809608 
 2478400    -10082390    919.82258    420.80902    -10257858    175468.02    -10078690    41.017409    41.017409    57.383041    80.800751    8.7914454 
 2478600    -10081241    922.39541   -679.59356    -10257200    175958.82    -10087221    63.599404    63.599404    57.382841    80.845478    8.7988292 
 2478800    -10080256    925.77997    506.95011    -10256861    176604.47    -10075797    29.398046    29.398046    57.382641    80.752971    8.8082812 
 2479000    -10082471    915.50552   -660.17328    -10257115    174644.49    -10088280    76.136996    76.136996    57.382441    80.865287    8.8155961 
 2479200    -10081364    925.52374    138.63204    -10257920    176555.59    -10080145    89.546304    89.546304    57.382241    80.949824    8.8242545 
 2479400    -10080756    925.66543    463.03205    -10257338    176582.62    -10076683    1.5207568    1.5207568    57.382041    80.826148    8.8321441 
 2479600    -10081002    921.35873   -87.997992    -10256763    175761.06    -10081777    32.585581    32.585581    57.381841    80.768837    8.8389596 
 2479800    -10081226    920.09114    336.19029    -10256745    175519.25    -10078268     80.73069     80.73069    57.381641    80.808373    8.8471911 
 2480000    -10081021    921.47348   -22.167884    -10256803    175782.95    -10081216    88.601675    88.601675    57.381441    80.859542    8.8545545 
 2480200    -10080254    927.89005   -69.274944    -10257261       177007    -10080864    19.506707    19.506707    57.381241    80.706782    8.8637077 
 2480400    -10082058    921.88878    740.31283    -10257920    175862.18    -10075547    38.548119    38.548119    57.381041    80.727926    8.8718329 
 2480600    -10080921    923.66926    122.70349    -10257123    176201.83    -10079841    20.116031    20.116031    57.380841    80.703406     8.879538 
 2480800    -10080251    922.02997   -118.02539    -10256140    175889.11    -10081289    48.142511    48.142511    57.380641    80.727244    8.8877305 
 2481000    -10081686    920.46546   -1307.9152    -10257277    175590.66    -10093202    34.545505    34.545505    57.380441    80.761866    8.8971215 
 2481200    -10081161    923.88423    333.93715    -10257404    176242.84    -10078224    8.1269695    8.1269695    57.380241    80.909702    8.9055359 
 2481400    -10079818    926.79749   -859.26614    -10256617    176798.58    -10087382    51.044585    51.044585    57.380041    80.655552    8.9145938 
 2481600    -10081680    920.47469   -892.26791    -10257273    175592.42    -10089534    58.744031    58.744031    57.379841    80.763177    8.9231431 
 2481800    -10081093    921.20057   -470.21016    -10256824    175730.89    -10085232    61.873997    61.873997    57.379641    80.915636    8.9326395 
 2482000    -10080295    921.35526   -230.90394    -10256055     175760.4    -10082328    18.422345    18.422345    57.379441    80.778326    8.9426833 
 2482200    -10082340    917.72351    901.85827    -10257408     175067.6    -10074411    31.672261    31.672261    57.379241    80.704577    8.9504996 
 2482400    -10080645    919.53408     335.9148    -10256058    175412.99    -10077689    60.704809    60.704809    57.379041    80.835131    8.9591608 
 2482600    -10080711    926.22695   -795.10441    -10257401    176689.74    -10087709    59.308461    59.308461    57.378841    80.822669    8.9670845 
 2482800    -10081386    924.49112   -1342.9842    -10257745    176358.61    -10093208    16.465727    16.465727    57.378641    80.720606    8.9763961 
 2483000    -10081145    922.60596   -35.983269    -10257144    175998.99    -10081462    27.540076    27.540076    57.378441    80.722704      8.98416 
 2483200    -10080801    925.97371    198.97172    -10257442    176641.43    -10079050     51.63394     51.63394    57.378241    80.820825      8.99357 
 2483400    -10081213    921.77482    -116.7329    -10257054    175840.44    -10082240    34.629685    34.629685    57.378041    80.854905    9.0017998 
 2483600    -10082197    920.92482   -629.09273    -10257875    175678.29    -10087732     25.58383     25.58383    57.377841    80.772448    9.0095726 
 2483800    -10080335    927.96376    305.78216    -10257356    177021.06    -10077645    77.695963    77.695963    57.377641     80.70566    9.0175232 
 2484000    -10080994    923.35158   -131.49496    -10257135    176141.23    -10082151     56.70069     56.70069    57.377441    80.734593    9.0278386 
 2484200    -10082571    921.19135    218.94085    -10258300    175729.13    -10080645    52.335916    52.335916    57.377241    80.747606    9.0361156 
 2484400    -10082778     919.2681    406.19143    -10258140    175362.25    -10079206    7.4352655    7.4352655    57.377041    80.647282    9.0446455 
 2484600    -10080867    922.13851   -585.67093    -10256776    175909.82    -10086021    6.0910124    6.0910124    57.376841    80.859044    9.0507674 
 2484800    -10080720    926.27233    1015.7223    -10257418     176698.4    -10071789    42.276673    42.276673    57.376641    80.756637    9.0596213 
 2485000    -10082488    919.07455   -1247.3735    -10257813    175325.33    -10093467    65.925705    65.925705    57.376441    80.719556    9.0694721 
 2485200    -10080476    928.06006   -251.84443    -10257516    177039.43    -10082692    70.889091    70.889091    57.376241    80.763365    9.0792319 
 2485400    -10081120     924.5072    341.13974    -10257482    176361.67    -10078120    63.837462    63.837462    57.376041     80.77402    9.0878738 
 2485600    -10082222    919.56119     -808.359    -10257640    175418.16    -10089336    62.266635    62.266635    57.375841    80.795362    9.0952799 
 2485800    -10081254    920.72961    269.74267    -10256895    175641.05    -10078880    59.910085    59.910085    57.375641    80.818221    9.1053731 
 2486000    -10080353    924.65222   -326.50853    -10256742    176389.34    -10083226    34.994214    34.994214    57.375441    80.804964    9.1151961 
 2486200    -10082510    920.00669    115.57511    -10258013    175503.14    -10081494     8.615593     8.615593    57.375241     80.78886    9.1227299 
 2486400    -10081534     919.6738   -70.491669    -10256974    175439.64    -10082154    63.792402    63.792402    57.375041    80.759668    9.1319877 
 2486600    -10080450    924.98076    1616.3153    -10256902    176452.01    -10066241    33.971318    33.971318    57.374841     80.80022    9.1418689 
 2486800    -10082509    917.82432    346.77885    -10257596    175086.83    -10079459     66.11233     66.11233    57.374641    80.976682    9.1499187 
 2487000    -10081505    920.49772   -29.259498    -10257102    175596.82    -10081763    38.776805    38.776805    57.374441    80.898556    9.1591594 
 2487200    -10080891    920.72676   -83.286797    -10256531    175640.51    -10081624     67.62835     67.62835    57.374241    80.770037    9.1665643 
 2487400    -10081888    917.54608   -398.08201    -10256922    175033.75    -10085391    44.846035    44.846035    57.374041    80.866074    9.1752624 
 2487600    -10082148     916.5534   -820.17845    -10256992    174844.39    -10089367    11.881643    11.881643    57.373841    80.651312    9.1830547 
 2487800    -10080511      924.423   -546.86644    -10256857    176345.61    -10085324    33.036026    33.036026    57.373641    80.741185    9.1914726 
 2488000    -10081620    921.57252    32.675616    -10257422    175801.85    -10081333    16.423418    16.423418    57.373441     80.79146    9.2003049 
 2488200    -10082364    920.07362    -21.76024    -10257880    175515.91    -10082556    45.563245    45.563245    57.373241     80.69546    9.2084459 
 2488400    -10081101    925.78602     608.0899    -10257706    176605.63    -10075753     69.21796     69.21796    57.373041    80.864353    9.2175916 
 2488600    -10080716    921.18708   -137.18951    -10256444    175728.32    -10081923    2.9273528    2.9273528    57.372841    80.840403    9.2249232 
 2488800    -10081328    921.36825    112.65269    -10257091    175762.88    -10080337    32.288343    32.288343    57.372641    80.890863    9.2312004 
 2489000    -10082013    920.47769     941.1192    -10257606    175592.99    -10073739    42.235784    42.235784    57.372441    80.773394    9.2409618 
 2489200    -10079931    927.20003    407.77024    -10256806    176875.37    -10076344   -1.8239725   -1.8239725    57.372241    80.832308    9.2495993 
 2489400    -10081010    921.52568    249.16001    -10256803    175792.91    -10078818    34.625316    34.625316    57.372041    80.818872    9.2558771 
 2489600    -10081371    920.79329     586.9567    -10257025     175653.2    -10076210     91.13577     91.13577    57.371841     80.93504    9.2636536 
 2489800    -10080994    923.54786    781.09287    -10257172    176178.67    -10074125    112.35192    112.35192    57.371641    81.002668     9.273935 
 2490000    -10079593    927.29091    -902.0388    -10256486     176892.7    -10087533    91.335444    91.335444    57.371441    80.793332    9.2827857 
 2490200    -10081445    921.70623    -43.83392    -10257273    175827.35    -10081831    22.184098    22.184098    57.371241     80.73391    9.2905953 
 2490400    -10081154    923.81488    1254.3431    -10257383    176229.61    -10070126    24.124453    24.124453    57.371041    80.703152    9.2978531 
 2490600    -10079135    925.85723   -123.38355    -10255754    176619.21    -10080221    68.308607    68.308607    57.370841    80.866571    9.3063017 
 2490800    -10080997    926.45106    1085.7984    -10257729    176732.49    -10071451     62.66009     62.66009    57.370641    80.963709    9.3162246 
 2491000    -10081327    917.11772    1267.4244    -10256279    174952.04    -10070183    73.354241    73.354241    57.370441    80.944916    9.3255957 
 2491200    -10081376    920.15301    1030.7229    -10256907    175531.06    -10072312    30.469631    30.469631    57.370241    80.905235    9.3334212 
 2491400    -10080378    918.75142   -133.17798    -10255642    175263.69    -10081550    28.004989    28.004989    57.370041     80.65092    9.3412636 
 2491600    -10080626    926.45935    273.40845    -10257360    176734.07    -10078221    61.714721    61.714721    57.369841    80.911251    9.3500942 
 2491800    -10081986    921.53332    322.47384    -10257781    175794.37    -10079150    39.056608    39.056608    57.369641     80.89964    9.3597665 
 2492000    -10080477     925.9448   -139.03456    -10257113    176635.92    -10081700   -18.336383   -18.336383    57.369441    80.727156    9.3674678 
 2492200    -10080770    921.50437   -1107.9264    -10256559    175788.85    -10090525    36.934474    36.934474    57.369241    80.793512    9.3757166 
 2492400    -10081666    921.49302   -101.76224    -10257453    175786.68    -10082561    50.439977    50.439977    57.369041    80.891202    9.3849064 
 2492600    -10082746    916.50298    267.02875    -10257581    174834.77    -10080397    34.571862    34.571862    57.368841    80.695604    9.3924714 
 2492800    -10080645    918.07194   -899.95571    -10255779    175134.07    -10088569    42.337759    42.337759    57.368641    80.912418    9.4006169 
 2493000    -10080962    922.84119   -795.90276    -10257005    176043.86    -10087967   -1.7511624   -1.7511624    57.368441    80.776513    9.4074773 
 2493200    -10082862    918.45122   -607.28625    -10258069    175206.42    -10088206    45.514525    45.514525    57.368241    80.625747    9.4164083 
 2493400    -10081402    921.21341    1398.2858    -10257136    175733.34    -10069108    67.893046    67.893046    57.368041    80.733747    9.4238138 
 2493600    -10080262    922.18828    210.68586    -10256181    175919.31    -10078409     80.09641     80.09641    57.367841    80.717624    9.4329146 
 2493800    -10081942    919.34874   -846.69525    -10257319    175377.63    -10089394    70.578518    70.578518    57.367641    80.799952    9.4427408 
 2494000    -10080894    922.66264   -150.69642    -10256904     176009.8    -10082220    49.426609    49.426609    57.367441    80.663691    9.4494031 
 2494200    -10080131    923.95122    1172.7241    -10256386    176255.61    -10069816    24.723876    24.723876    57.367241    80.733435    9.4575762 
 2494400    -10081729    922.80642    50.544905    -10257766    176037.23    -10081285    31.263548    31.263548    57.367041    80.788127    9.4645293 
 2494600    -10080806    923.84635   -412.08293    -10257042    176235.61    -10084433     65.38561     65.38561    57.366841    80.897302    9.4749215 
 2494800    -10079725    929.67945    773.73535    -10257073    177348.35    -10072920    68.062667    68.062667    57.366641    80.795145    9.4848584 
 2495000    -10081304    926.92539   -771.27981    -10258127    176822.98    -10088092    8.7710802    8.7710802    57.366441    80.671965    9.4930268 
 2495200    -10081364    921.44178    386.56588    -10257141    175776.91    -10077963     37.79956     37.79956    57.366241    80.727518    9.5017542 
 2495400    -10079446    929.43035    460.67572    -10256747    177300.83    -10075394    79.511328    79.511328    57.366041    80.608987    9.5087496 
 2495600    -10081210    920.58601    -977.6961    -10256824    175613.66    -10089817    57.342556    57.342556    57.365841    80.624975    9.5198182 
 2495800    -10081236    921.34798   -348.58415    -10256995    175759.01    -10084303   -21.208989   -21.208989    57.365641    80.752947    9.5294541 
 2496000    -10079640    925.59548   -978.21324    -10256210    176569.28    -10088255   -2.8870712   -2.8870712    57.365441    80.782431    9.5375732 
 2496200    -10081206    923.18847    1634.7255    -10257316    176110.11    -10066836    15.601841    15.601841    57.365241    80.851039    9.5442266 
 2496400    -10081333    920.23385    139.61616    -10256879    175546.48    -10080104    64.139687    64.139687    57.365041    80.963403    9.5545392 
 2496600    -10079723    925.00637   -505.18971    -10256180     176456.9    -10084170    27.002142    27.002142    57.364841    80.740461    9.5634135 
 2496800    -10079969    925.52061    836.72543    -10256524       176555    -10072609    37.533803    37.533803    57.364641    80.621261    9.5728242 
 2497000    -10081291    920.99507    586.12811    -10256983    175691.69    -10076135    39.241924    39.241924    57.364441    80.874373    9.5813987 
 2497200    -10081478    922.67032    397.88827    -10257489    176011.27    -10077978    41.820351    41.820351    57.364241    80.803338     9.589505 
 2497400    -10079770    925.14243   -543.15681    -10256253    176482.85    -10084551    39.442245    39.442245    57.364041    80.751599    9.5967849 
 2497600    -10081671    920.65344   -39.708599    -10257297    175626.52    -10082020    72.226603    72.226603    57.363841    80.916163    9.6044714 
 2497800    -10081292    920.45383    421.13657    -10256880    175588.44    -10077588    60.240803    60.240803    57.363641    80.797762    9.6139291 
 2498000    -10079952     925.6477    789.44089    -10256531    176579.24    -10073008    20.356844    20.356844    57.363441    80.771294    9.6217511 
 2498200    -10081433    923.71777    379.30615    -10257644    176211.08    -10078097    32.793095    32.793095    57.363241    80.780544     9.628178 
 2498400    -10081834    921.84161    656.10199    -10257687    175853.18    -10076065    82.693682    82.693682    57.363041    80.836606    9.6380763 
 2498600    -10080146    924.66165    -524.1833    -10256537    176391.14    -10084759    83.419414    83.419414    57.362841    80.870253     9.646528 
 2498800    -10080852    923.85218   -60.969857    -10257089    176236.72    -10081389   -5.7951231   -5.7951231    57.362641    80.590302    9.6547858 
 2499000    -10081478    924.19387    323.75674    -10257780     176301.9    -10078630     36.76404     36.76404    57.362441    80.784412    9.6617779 
 2499200    -10082320    919.97852   -242.03359    -10257818    175497.77    -10084450    75.141134    75.141134    57.362241    80.772729    9.6726662 
 2499400    -10080538    920.97296   -825.52076    -10256225    175687.47    -10087805    104.82015    104.82015    57.362041     80.91565    9.6828244 
 2499600    -10080661     923.8861    548.21431    -10256904    176243.19    -10075838    65.061012    65.061012    57.361841    80.761244    9.6918446 
 2499800    -10082120    922.37531    48.370887    -10258075    175954.99    -10081694    47.960916    47.960916    57.361641    80.716998    9.7014799 
 2500000    -10080903    922.99868     277.7637    -10256977    176073.91    -10078460    57.468024    57.468024    57.361441    80.818954    9.7111563 
Loop time of 71037.8 on 96 procs for 2500000 steps with 63998 atoms

Performance: 3.041 ns/day, 7.893 hours/ns, 35.193 timesteps/s
97.6% CPU use with 96 MPI tasks x 1 OpenMP threads

MPI task timing breakdown:
Section |  min time  |  avg time  |  max time  |%varavg| %total
---------------------------------------------------------------
Pair    | 17525      | 19976      | 21982      | 968.8 | 28.12
Bond    | 5.002      | 6.5822     | 10.486     |  38.6 |  0.01
Kspace  | 32808      | 34825      | 37266      | 725.8 | 49.02
Neigh   | 133.37     | 133.88     | 134.44     |   2.9 |  0.19
Comm    | 1369.6     | 1603       | 1744.6     | 316.0 |  2.26
Output  | 6.6063     | 6.6631     | 8.8511     |   8.7 |  0.01
Modify  | 6279.6     | 9365.9     | 14124      |3092.2 | 13.18
Other   |            | 5121       |            |       |  7.21

Nlocal:    666.646 ave 700 max 600 min
Histogram: 32 0 0 0 0 0 0 0 0 64
Nghost:    10833.3 ave 10914 max 10782 min
Histogram: 16 47 1 0 0 0 0 0 10 22
Neighs:    409371 ave 431008 max 366943 min
Histogram: 32 0 0 0 0 0 0 0 0 64

Total # of neighbors = 39299588
Ave neighs/atom = 614.075
Ave special neighs/atom = 0
Neighbor list builds = 11650
Dangerous builds = 1
Total wall time: 19:44:01
