 LAMMPS input for trinclinic P-1 TATB unitcell

 48     atoms
 4      atom types

 0.0   8.92600              xlo xhi
 0.0   7.71861              ylo yhi
 0.0   5.80567              zlo zhi
 -4.48217 -2.31409 -3.62122 xy xz yz

 Masses

 1 12.011
 2 1.0079
 3 15.999
 4 14.007

 Atoms               

           1           1         0.00000        0.34250E+01        0.34441E+00        0.14908E+01
           2           1         0.00000        0.27449E+01       -0.88052E+00        0.14438E+01
           3           1         0.00000        0.13108E+01       -0.84425E+00        0.14438E+01
           4           1         0.00000        0.58548E+00        0.37740E+00        0.14578E+01
           5           1         0.00000        0.13487E+01        0.15995E+01        0.14177E+01
           6           1         0.00000        0.27533E+01        0.16098E+01        0.14630E+01
           7           4         0.00000        0.47996E+01        0.32312E+00        0.15646E+01
           8           4         0.00000        0.34006E+01       -0.19966E+01        0.13869E+01
           9           4         0.00000        0.60262E+00       -0.20457E+01        0.14322E+01
          10           4         0.00000       -0.73465E+00        0.39559E+00        0.14967E+01
          11           4         0.00000        0.66590E+00        0.28253E+01        0.13643E+01
          12           4         0.00000        0.34140E+01        0.27232E+01        0.14612E+01
          13           3         0.00000        0.54116E+01        0.13476E+01        0.16371E+01
          14           3         0.00000        0.54387E+01       -0.72712E+00        0.15332E+01
          15           3         0.00000        0.12152E+01       -0.31138E+01        0.13800E+01
          16           3         0.00000       -0.63633E+00       -0.20713E+01        0.14659E+01
          17           3         0.00000       -0.55529E+00        0.28621E+01        0.13376E+01
          18           3         0.00000        0.12598E+01        0.39018E+01        0.13858E+01
          19           2         0.00000        0.42586E+01       -0.19656E+01        0.13817E+01
          20           2         0.00000        0.29374E+01       -0.27322E+01        0.15094E+01
          21           2         0.00000       -0.11474E+01       -0.21739E+00        0.14746E+01
          22           2         0.00000       -0.12448E+01        0.13031E+01        0.14746E+01
          23           2         0.00000        0.29949E+01        0.34697E+01        0.14165E+01
          24           2         0.00000        0.44000E+01        0.26930E+01        0.13004E+01
          25           1         0.00000       -0.12953E+01        0.37529E+01        0.43147E+01
          26           1         0.00000       -0.61517E+00        0.49779E+01        0.43618E+01
          27           1         0.00000        0.81888E+00        0.49416E+01        0.43618E+01
          28           1         0.00000        0.15442E+01        0.37199E+01        0.43478E+01
          29           1         0.00000        0.78102E+00        0.24978E+01        0.43879E+01
          30           1         0.00000       -0.62363E+00        0.24874E+01        0.43426E+01
          31           4         0.00000       -0.26699E+01        0.37742E+01        0.42410E+01
          32           4         0.00000       -0.12708E+01        0.60940E+01        0.44186E+01
          33           4         0.00000        0.15271E+01        0.61431E+01        0.43734E+01
          34           4         0.00000        0.28643E+01        0.37018E+01        0.43089E+01
          35           4         0.00000        0.14638E+01        0.12720E+01        0.44413E+01
          36           4         0.00000       -0.12843E+01        0.13741E+01        0.43443E+01
          37           3         0.00000       -0.32819E+01        0.27497E+01        0.41684E+01
          38           3         0.00000       -0.33090E+01        0.48245E+01        0.42723E+01
          39           3         0.00000        0.91444E+00        0.72112E+01        0.44256E+01
          40           3         0.00000        0.27660E+01        0.61687E+01        0.43397E+01
          41           3         0.00000        0.26850E+01        0.12352E+01        0.44680E+01
          42           3         0.00000        0.86992E+00        0.19553E+00        0.44198E+01
          43           2         0.00000       -0.21289E+01        0.60630E+01        0.44239E+01
          44           2         0.00000       -0.80774E+00        0.68296E+01        0.42961E+01
          45           2         0.00000        0.32771E+01        0.43147E+01        0.43310E+01
          46           2         0.00000        0.33746E+01        0.27942E+01        0.43310E+01
          47           2         0.00000       -0.86521E+00        0.62767E+00        0.43890E+01
          48           2         0.00000       -0.22703E+01        0.14042E+01        0.45052E+01

