LAMMPS data file via write_data, version 22 Dec 2022, timestep = 400

3396 atoms
3 atom types

0 28.7403 xlo xhi
0 28.7403 ylo yhi
0 86 zlo zhi

Masses

1 52
2 55.84
3 16

Atoms # charge

1 2 0.04733054784639575 0 0 0 0 0 0
2 2 0.02379519025376433 1.43701 1.43701 1.43687 0 0 0
3 2 0.04875271329191495 2.87403 0 0 0 0 0
4 2 0.02247351746818779 4.31105 1.43701 1.43687 0 0 0
5 2 0.04820305292776663 5.74806 0 0 0 0 0
21 2 0.04571265464034595 0 2.87403 0 0 0 0
22 1 0.04350527455209897 1.43701 4.31105 1.43687 0 0 0
23 2 0.04467494497727664 2.87403 2.87403 0 0 0 0
24 2 0.02259446112351764 4.31105 4.31105 1.43687 0 0 0
25 2 0.04729374292569859 5.74806 2.87403 0 0 0 0
41 2 0.04386566650470901 0 5.74806 0 0 0 0
43 1 0.06262608200330282 2.87403 5.74806 0 0 0 0
45 2 0.04475130799088359 5.74806 5.74806 0 0 0 0
201 2 0.02391987766826849 0 0 2.87417 0 0 0
202 1 0.0451508010923632 1.43701 1.43701 4.31104 0 0 0
203 1 0.04377685703684511 2.87403 0 2.87417 0 0 0
204 2 0.0241750664862218 4.31105 1.43701 4.31104 0 0 0
205 1 0.05213041367088328 5.74806 0 2.87417 0 0 0
221 2 0.02536844143928826 0 2.87403 2.87417 0 0 0
222 2 0.02516220797487181 1.43701 4.31105 4.31104 0 0 0
223 2 0.028949283066224 2.87403 2.87403 2.87417 0 0 0
224 2 0.0310642783507697 4.31105 4.31105 4.31104 0 0 0
225 2 0.02854964014303313 5.74806 2.87403 2.87417 0 0 0
241 2 0.02799725838125021 0 5.74806 2.87417 0 0 0
243 2 0.02548371112164611 2.87403 5.74806 2.87417 0 0 0
245 2 0.02859083323337128 5.74806 5.74806 2.87417 0 0 0
401 2 0.0230145297815641 0.030714640903775292 0.042813600196925504 5.775016893708583 0 0 0
403 1 0.0411061477884513 2.8547818929922277 0.01159328883928596 5.754859666902427 0 0 0
405 2 0.02640090332040822 5.748385100585615 28.731641367570823 5.697565716486951 0 -1 0
421 1 0.04536278009515195 28.730775850493508 2.882863458947962 5.776981820067083 -1 0 0
423 2 0.02573925283343974 2.8350470768131224 2.915750858128981 5.763035023270995 0 0 0
425 2 0.03061034398328631 5.769382563517037 2.899012744525946 5.737270858740161 0 0 0
441 2 0.02589390036676595 0.03233960022717767 5.714174167602751 5.808543924694499 0 0 0
443 1 0.04835711481487186 2.8767101292914408 5.74653022326121 5.773871205340545 0 0 0
445 2 0.0274076258280667 5.755409256293184 5.768820580750822 5.795507634585036 0 0 0
6 2 0.01989284328480899 7.18508 1.43701 1.43687 0 0 0
7 2 0.04764800635337734 8.62209 0 0 0 0 0
8 2 0.02358478837412203 10.0591 1.43701 1.43687 0 0 0
9 2 0.04617343673010702 11.4961 0 0 0 0 0
10 2 0.02813420106030902 12.9331 1.43701 1.43687 0 0 0
26 1 0.04149747307733091 7.18508 4.31105 1.43687 0 0 0
27 2 0.04539926838638167 8.62209 2.87403 0 0 0 0
28 2 0.02064000533506083 10.0591 4.31105 1.43687 0 0 0
29 2 0.04748859791600257 11.4961 2.87403 0 0 0 0
30 2 0.02205907916254055 12.9331 4.31105 1.43687 0 0 0
47 2 0.04468333668078124 8.62209 5.74806 0 0 0 0
49 1 0.06557269287885467 11.4961 5.74806 0 0 0 0
206 2 0.02723371612793862 7.18508 1.43701 4.31104 0 0 0
207 2 0.02802524842903697 8.62209 0 2.87417 0 0 0
208 2 0.02805636517112532 10.0591 1.43701 4.31104 0 0 0
209 2 0.02771606044251941 11.4961 0 2.87417 0 0 0
210 2 0.0278105812015759 12.9331 1.43701 4.31104 0 0 0
226 2 0.02855011084473514 7.18508 4.31105 4.31104 0 0 0
227 1 0.04872657564248398 8.62209 2.87403 2.87417 0 0 0
228 2 0.02322298263724833 10.0591 4.31105 4.31104 0 0 0
229 2 0.02910932090254992 11.4961 2.87403 2.87417 0 0 0
230 1 0.04426920399420722 12.9331 4.31105 4.31104 0 0 0
247 2 0.02956679247010714 8.62209 5.74806 2.87417 0 0 0
249 2 0.03000012777770165 11.4961 5.74806 2.87417 0 0 0
407 2 0.03335723340259245 8.606251759833984 28.68403509187546 5.705682053032842 0 -1 0
409 2 0.02895481426940377 11.477962913052066 0.08831143953272524 5.789977547551649 0 0 0
427 2 0.02925089747251843 8.65805167725976 2.883573361448166 5.688484000349251 0 0 0
429 1 0.04749416480066813 11.492691326631254 2.875611713636438 5.781382135250102 0 0 0
447 2 0.03168895332013205 8.663022971498345 5.763321319221716 5.746612531848124 0 0 0
449 1 0.04548738324911925 11.523760175659106 5.715174278169641 5.810501806522709 0 0 0
11 2 0.04617220398787104 14.3702 0 0 0 0 0
12 2 0.02477537777710226 15.8072 1.43701 1.43687 0 0 0
13 2 0.0441289611147401 17.2442 0 0 0 0 0
14 2 0.02165654701706061 18.6812 1.43701 1.43687 0 0 0
15 1 0.06638467196327777 20.1182 0 0 0 0 0
16 2 0.02007225209196108 21.5552 1.43701 1.43687 0 0 0
31 2 0.04614361121591291 14.3702 2.87403 0 0 0 0
32 1 0.04285884301955341 15.8072 4.31105 1.43687 0 0 0
33 2 0.04408932045717166 17.2442 2.87403 0 0 0 0
34 1 0.04493541371268596 18.6812 4.31105 1.43687 0 0 0
35 2 0.04522052069184285 20.1182 2.87403 0 0 0 0
36 2 0.02388891123623715 21.5552 4.31105 1.43687 0 0 0
51 2 0.04294086981434711 14.3702 5.74806 0 0 0 0
53 2 0.03973996547316658 17.2442 5.74806 0 0 0 0
55 2 0.04539026632670579 20.1182 5.74806 0 0 0 0
211 2 0.02732113635095834 14.3702 0 2.87417 0 0 0
212 2 0.03248824548603611 15.8072 1.43701 4.31104 0 0 0
213 2 0.02964734493248265 17.2442 0 2.87417 0 0 0
214 2 0.02945201189949509 18.6812 1.43701 4.31104 0 0 0
215 1 0.04773130392285074 20.1182 0 2.87417 0 0 0
216 1 0.04474026150637991 21.5552 1.43701 4.31104 0 0 0
231 2 0.02860545364076307 14.3702 2.87403 2.87417 0 0 0
232 2 0.02731873198052928 15.8072 4.31105 4.31104 0 0 0
233 2 0.02796289498277058 17.2442 2.87403 2.87417 0 0 0
234 2 0.02955085539036084 18.6812 4.31105 4.31104 0 0 0
235 2 0.02532833715793247 20.1182 2.87403 2.87417 0 0 0
236 1 0.04801735883426481 21.5552 4.31105 4.31104 0 0 0
251 2 0.0257414512848236 14.3702 5.74806 2.87417 0 0 0
253 2 0.02607688426507334 17.2442 5.74806 2.87417 0 0 0
255 2 0.0245138708237376 20.1182 5.74806 2.87417 0 0 0
411 2 0.03052959238574389 14.400976931322356 0.061934343501805156 5.736339431446319 0 0 0
413 2 0.03129631604509109 17.24219967023239 0.006493445227945874 5.724312325672422 0 0 0
415 2 0.02591236967501051 20.096843537517202 28.695320803169558 5.712946780031699 0 -1 0
431 2 0.0252055659066782 14.354883269075879 2.8548626210220847 5.740943350725945 0 0 0
433 2 0.0299030115045281 17.25590774129996 2.855813121994378 5.704915377139731 0 0 0
435 2 0.02607388508164657 20.100070274447347 2.9085308460486377 5.83314691577793 0 0 0
451 1 0.04397228996829178 14.335704670615952 5.7511007931823235 5.803496290481986 0 0 0
453 2 0.02613955707670826 17.241992103791947 5.777026318710676 5.680518797475922 0 0 0
455 1 0.04361507595348232 20.117940046123238 5.729127577382485 5.769438648361072 0 0 0
17 2 0.04371499097047669 22.9922 0 0 0 0 0
18 2 0.01901721785010766 24.4293 1.43701 1.43687 0 0 0
19 2 0.04348056999635494 25.8663 0 0 0 0 0
20 2 0.02364516245327221 27.3033 1.43701 1.43687 0 0 0
37 2 0.04810374851607127 22.9922 2.87403 0 0 0 0
38 2 0.01804735779357335 24.4293 4.31105 1.43687 0 0 0
39 1 0.0638655655856934 25.8663 2.87403 0 0 0 0
40 2 0.01775401395832753 27.3033 4.31105 1.43687 0 0 0
57 1 0.0647267779158118 22.9922 5.74806 0 0 0 0
59 1 0.06400827122494142 25.8663 5.74806 0 0 0 0
217 1 0.04465679171146426 22.9922 0 2.87417 0 0 0
218 1 0.04736216691448616 24.4293 1.43701 4.31104 0 0 0
219 2 0.02285806494567699 25.8663 0 2.87417 0 0 0
220 2 0.02500313628566238 27.3033 1.43701 4.31104 0 0 0
237 2 0.02538980806942182 22.9922 2.87403 2.87417 0 0 0
238 2 0.02637543194084391 24.4293 4.31105 4.31104 0 0 0
239 1 0.04788277409065066 25.8663 2.87403 2.87417 0 0 0
240 1 0.04434855774961872 27.3033 4.31105 4.31104 0 0 0
257 2 0.02870869714289673 22.9922 5.74806 2.87417 0 0 0
259 2 0.02772831004292735 25.8663 5.74806 2.87417 0 0 0
417 2 0.0243154385157272 23.003411046389378 28.679541477014794 5.7240625812956285 0 -1 0
419 2 0.02675903900948802 25.853483776154093 28.721046285933923 5.773214370815121 0 -1 0
437 2 0.02425037638741864 23.013721478395553 2.8585377852077314 5.770463826133744 0 0 0
439 2 0.01962662269625501 25.87877561874279 2.8929969115526 5.753291914103741 0 0 0
457 2 0.02200470161397551 23.020406570334085 5.76579729280425 5.715822172000378 0 0 0
459 1 0.04059418402851618 25.886305243187934 5.745414134446925 5.7556217796828815 0 0 0
42 2 0.02343333435979101 1.43701 7.18508 1.43687 0 0 0
44 2 0.02381790640461707 4.31105 7.18508 1.43687 0 0 0
61 2 0.04637200794739262 0 8.62209 0 0 0 0
63 2 0.04722426947479621 2.87403 8.62209 0 0 0 0
65 2 0.04764148347582964 5.74806 8.62209 0 0 0 0
242 2 0.02963504884515508 1.43701 7.18508 4.31104 0 0 0
244 1 0.04531343232891429 4.31105 7.18508 4.31104 0 0 0
261 2 0.02893662755289993 0 8.62209 2.87417 0 0 0
263 2 0.03154526706886137 2.87403 8.62209 2.87417 0 0 0
265 2 0.02842381297529545 5.74806 8.62209 2.87417 0 0 0
461 2 0.02632690704285314 28.71983028641271 8.633973729009213 5.800126829697695 -1 0 0
463 2 0.02449612491660344 2.8916619227210907 8.617192846881316 5.774544221912626 0 0 0
465 1 0.04649911670779988 5.750687471072979 8.621388806580873 5.801403737118293 0 0 0
62 2 0.02528849202970727 1.43701 10.0591 1.43687 0 0 0
64 2 0.0215655459352452 4.31105 10.0591 1.43687 0 0 0
81 2 0.0467810387392967 0 11.4961 0 0 0 0
82 2 0.02522822758644038 1.43701 12.9331 1.43687 0 0 0
83 2 0.04802605444093417 2.87403 11.4961 0 0 0 0
84 2 0.01572666828900745 4.31105 12.9331 1.43687 0 0 0
85 1 0.06362489153632696 5.74806 11.4961 0 0 0 0
262 2 0.032570284556588 1.43701 10.0591 4.31104 0 0 0
264 2 0.02637747371091351 4.31105 10.0591 4.31104 0 0 0
281 2 0.02718337053297491 0 11.4961 2.87417 0 0 0
282 2 0.02892173501326475 1.43701 12.9331 4.31104 0 0 0
283 2 0.03033081298986331 2.87403 11.4961 2.87417 0 0 0
284 2 0.02741981179669112 4.31105 12.9331 4.31104 0 0 0
285 1 0.05124916266926009 5.74806 11.4961 2.87417 0 0 0
481 2 0.02813530931967603 0.0023892205943110943 11.482342552489056 5.7257161041266995 0 0 0
483 2 0.03020403135120963 2.904792228318547 11.508273996389866 5.704190045503935 0 0 0
485 2 0.02487270202778857 5.74145031919561 11.45933254430676 5.6970455553292165 0 0 0
46 2 0.02587465883611521 7.18508 7.18508 1.43687 0 0 0
48 2 0.02326754272115501 10.0591 7.18508 1.43687 0 0 0
50 2 0.02464805843492079 12.9331 7.18508 1.43687 0 0 0
67 2 0.04846473410804057 8.62209 8.62209 0 0 0 0
69 2 0.04667996316174758 11.4961 8.62209 0 0 0 0
246 2 0.02900186466717829 7.18508 7.18508 4.31104 0 0 0
248 2 0.0303103643884564 10.0591 7.18508 4.31104 0 0 0
250 2 0.02595269137101677 12.9331 7.18508 4.31104 0 0 0
267 2 0.03295666296249941 8.62209 8.62209 2.87417 0 0 0
269 2 0.03054914204712979 11.4961 8.62209 2.87417 0 0 0
467 2 0.02798166634006151 8.577845322914298 8.602649346072385 5.750589190900406 0 0 0
469 2 0.02827677501457199 11.468072293574053 8.575546170896905 5.7595673994879295 0 0 0
66 2 0.02100759371578102 7.18508 10.0591 1.43687 0 0 0
68 2 0.02628294683138936 10.0591 10.0591 1.43687 0 0 0
70 2 0.02357972564493161 12.9331 10.0591 1.43687 0 0 0
86 2 0.01612883859773787 7.18508 12.9331 1.43687 0 0 0
87 2 0.04590697687533191 8.62209 11.4961 0 0 0 0
88 2 0.02432156913156139 10.0591 12.9331 1.43687 0 0 0
89 2 0.04934926353430855 11.4961 11.4961 0 0 0 0
90 2 0.02055984368937921 12.9331 12.9331 1.43687 0 0 0
266 2 0.02584931039751887 7.18508 10.0591 4.31104 0 0 0
268 2 0.03077946537829727 10.0591 10.0591 4.31104 0 0 0
270 1 0.04768731826037761 12.9331 10.0591 4.31104 0 0 0
286 2 0.02847518181739765 7.18508 12.9331 4.31104 0 0 0
287 2 0.03226664171422111 8.62209 11.4961 2.87417 0 0 0
288 2 0.03153997027588477 10.0591 12.9331 4.31104 0 0 0
289 2 0.02615129182473278 11.4961 11.4961 2.87417 0 0 0
290 1 0.04591372182767262 12.9331 12.9331 4.31104 0 0 0
487 2 0.02657923418056483 8.619952376632439 11.479966772327533 5.684891623218556 0 0 0
489 2 0.02750448264231414 11.478107162781498 11.495660748581294 5.785343490793923 0 0 0
52 1 0.04113308019005595 15.8072 7.18508 1.43687 0 0 0
54 2 0.02379457045627986 18.6812 7.18508 1.43687 0 0 0
56 2 0.02124025361098643 21.5552 7.18508 1.43687 0 0 0
71 2 0.04349178486228139 14.3702 8.62209 0 0 0 0
73 1 0.06157304845341863 17.2442 8.62209 0 0 0 0
75 2 0.04836354310406195 20.1182 8.62209 0 0 0 0
252 2 0.03197629687870449 15.8072 7.18508 4.31104 0 0 0
254 2 0.02952616821628321 18.6812 7.18508 4.31104 0 0 0
256 1 0.04528450389985889 21.5552 7.18508 4.31104 0 0 0
271 2 0.02602323632960547 14.3702 8.62209 2.87417 0 0 0
273 2 0.02712136168287806 17.2442 8.62209 2.87417 0 0 0
275 2 0.03060297085340694 20.1182 8.62209 2.87417 0 0 0
471 2 0.03125227920141527 14.391205531721003 8.565934626359859 5.755790751116949 0 0 0
473 2 0.02902497587617452 17.24918987274931 8.683200206816691 5.778107331525249 0 0 0
475 2 0.02690859659794634 20.11611075961507 8.630848069975928 5.734318708233473 0 0 0
72 1 0.0364735074220531 15.8072 10.0591 1.43687 0 0 0
74 2 0.02162018088993924 18.6812 10.0591 1.43687 0 0 0
76 2 0.02282561049111552 21.5552 10.0591 1.43687 0 0 0
91 2 0.04501665628212986 14.3702 11.4961 0 0 0 0
92 1 0.03518969082203544 15.8072 12.9331 1.43687 0 0 0
93 2 0.04158250723287639 17.2442 11.4961 0 0 0 0
94 2 0.01847984028487913 18.6812 12.9331 1.43687 0 0 0
95 2 0.04829188173637686 20.1182 11.4961 0 0 0 0
96 2 0.02391214221609396 21.5552 12.9331 1.43687 0 0 0
272 2 0.0244106063348708 15.8072 10.0591 4.31104 0 0 0
274 2 0.02771215724244896 18.6812 10.0591 4.31104 0 0 0
276 2 0.02839540546347274 21.5552 10.0591 4.31104 0 0 0
291 1 0.04036563531039434 14.3702 11.4961 2.87417 0 0 0
292 2 0.02097067007684347 15.8072 12.9331 4.31104 0 0 0
293 1 0.04632932397524474 17.2442 11.4961 2.87417 0 0 0
294 2 0.02747704353970544 18.6812 12.9331 4.31104 0 0 0
295 2 0.03274094595974603 20.1182 11.4961 2.87417 0 0 0
296 2 0.02922760317697577 21.5552 12.9331 4.31104 0 0 0
491 2 0.02358059181804161 14.424125279871665 11.467693357053554 5.704951064184346 0 0 0
493 1 0.04757638921987299 17.27062437632016 11.487988054798524 5.7678517596898775 0 0 0
495 2 0.03094878036033472 20.071600919656845 11.495245074371802 5.722026346238012 0 0 0
58 2 0.02029716559076342 24.4293 7.18508 1.43687 0 0 0
60 2 0.02422332385982215 27.3033 7.18508 1.43687 0 0 0
77 2 0.04425868047286392 22.9922 8.62209 0 0 0 0
79 2 0.04331190205634514 25.8663 8.62209 0 0 0 0
258 2 0.02476074850378186 24.4293 7.18508 4.31104 0 0 0
260 1 0.04634406495942939 27.3033 7.18508 4.31104 0 0 0
277 1 0.04741621857326458 22.9922 8.62209 2.87417 0 0 0
279 2 0.02376901154784776 25.8663 8.62209 2.87417 0 0 0
477 2 0.02499533571018941 23.037973063601292 8.665383154326534 5.745586985758022 0 0 0
479 1 0.04663279022154838 25.89042251713079 8.606407908532148 5.7845948466862165 0 0 0
78 1 0.03942752646802902 24.4293 10.0591 1.43687 0 0 0
80 1 0.04196903405319714 27.3033 10.0591 1.43687 0 0 0
97 2 0.0469850885048375 22.9922 11.4961 0 0 0 0
98 2 0.02203262011360121 24.4293 12.9331 1.43687 0 0 0
99 2 0.04371709633641876 25.8663 11.4961 0 0 0 0
100 2 0.01889814761419241 27.3033 12.9331 1.43687 0 0 0
278 2 0.02575887677733721 24.4293 10.0591 4.31104 0 0 0
280 2 0.02488853355459727 27.3033 10.0591 4.31104 0 0 0
297 2 0.02885609713740135 22.9922 11.4961 2.87417 0 0 0
298 2 0.0242558802163074 24.4293 12.9331 4.31104 0 0 0
299 1 0.04328918393880832 25.8663 11.4961 2.87417 0 0 0
300 1 0.04692051627354904 27.3033 12.9331 4.31104 0 0 0
497 2 0.03248034317821522 22.990197697318596 11.551286323667906 5.744432385457119 0 0 0
499 2 0.02883280449229289 25.851322146025407 11.432490134405747 5.69443738554234 0 0 0
101 2 0.0470364908683712 0 14.3702 0 0 0 0
102 2 0.02319807829422246 1.43701 15.8072 1.43687 0 0 0
103 2 0.04620701902637358 2.87403 14.3702 0 0 0 0
104 2 0.02194477730002337 4.31105 15.8072 1.43687 0 0 0
105 1 0.06418067338986962 5.74806 14.3702 0 0 0 0
121 2 0.04531516888988025 0 17.2442 0 0 0 0
122 2 0.0211080754873712 1.43701 18.6812 1.43687 0 0 0
123 2 0.04865392421883488 2.87403 17.2442 0 0 0 0
124 2 0.02334027782526892 4.31105 18.6812 1.43687 0 0 0
125 2 0.04502744042848954 5.74806 17.2442 0 0 0 0
301 2 0.02635101716412585 0 14.3702 2.87417 0 0 0
302 2 0.0260798060427589 1.43701 15.8072 4.31104 0 0 0
303 1 0.05142655528925887 2.87403 14.3702 2.87417 0 0 0
304 2 0.02678964236481618 4.31105 15.8072 4.31104 0 0 0
305 2 0.03066728538343273 5.74806 14.3702 2.87417 0 0 0
321 2 0.02900393545696433 0 17.2442 2.87417 0 0 0
322 1 0.04383026502139772 1.43701 18.6812 4.31104 0 0 0
323 2 0.02976328265231402 2.87403 17.2442 2.87417 0 0 0
324 2 0.02859360712301159 4.31105 18.6812 4.31104 0 0 0
325 2 0.03139052847223373 5.74806 17.2442 2.87417 0 0 0
501 2 0.02718043277662022 0.045152701242170024 14.400378746499673 5.762936553965205 0 0 0
503 2 0.02789635370607488 2.8667388616264655 14.405135265088484 5.750309807176905 0 0 0
505 2 0.02536028995752839 5.740249475137576 14.361305216710909 5.6690290264261005 0 0 0
521 1 0.04106376617356924 0.004435106669756489 17.25214094768495 5.745643452468574 0 0 0
523 1 0.04282558905763155 2.8804537050200554 17.275141556871183 5.788225129101847 0 0 0
525 2 0.02532269732432695 5.727764483636184 17.241969034156394 5.674686917302379 0 0 0
141 1 0.06168053096431794 0 20.1182 0 0 0 0
142 1 0.03591147209415295 1.43701 21.5552 1.43687 0 0 0
143 1 0.05876405994160532 2.87403 20.1182 0 0 0 0
144 1 0.03839960009401321 4.31105 21.5552 1.43687 0 0 0
145 2 0.0432383012095596 5.74806 20.1182 0 0 0 0
341 2 0.03066113224589524 0 20.1182 2.87417 0 0 0
342 2 0.02677527545122939 1.43701 21.5552 4.31104 0 0 0
343 2 0.02413087034246304 2.87403 20.1182 2.87417 0 0 0
344 2 0.02848379696035459 4.31105 21.5552 4.31104 0 0 0
345 2 0.02942636539499819 5.74806 20.1182 2.87417 0 0 0
541 2 0.02331794806565057 28.723518495493817 20.148931389811498 5.719754480760797 -1 0 0
543 1 0.04456364551087068 2.9063568204760477 20.098457671535446 5.81709607224945 0 0 0
545 2 0.02866808678344279 5.7305561050520115 20.13695498934937 5.743834180960673 0 0 0
106 2 0.02011014550139158 7.18508 15.8072 1.43687 0 0 0
107 1 0.06424080493028378 8.62209 14.3702 0 0 0 0
108 2 0.02426039691744249 10.0591 15.8072 1.43687 0 0 0
109 2 0.04750378407317604 11.4961 14.3702 0 0 0 0
110 2 0.02436133966247009 12.9331 15.8072 1.43687 0 0 0
126 1 0.04426417695480132 7.18508 18.6812 1.43687 0 0 0
127 2 0.04460190247100169 8.62209 17.2442 0 0 0 0
128 2 0.02538282191720193 10.0591 18.6812 1.43687 0 0 0
129 2 0.04627135122676933 11.4961 17.2442 0 0 0 0
130 1 0.04296215742868925 12.9331 18.6812 1.43687 0 0 0
306 2 0.03195825786738062 7.18508 15.8072 4.31104 0 0 0
307 2 0.03162603156685367 8.62209 14.3702 2.87417 0 0 0
308 2 0.03324398841121459 10.0591 15.8072 4.31104 0 0 0
309 2 0.02928295443722246 11.4961 14.3702 2.87417 0 0 0
310 2 0.02753827301934823 12.9331 15.8072 4.31104 0 0 0
326 2 0.02727960532757805 7.18508 18.6812 4.31104 0 0 0
327 2 0.02989334430558084 8.62209 17.2442 2.87417 0 0 0
328 2 0.0299576685596567 10.0591 18.6812 4.31104 0 0 0
329 2 0.02739805466893566 11.4961 17.2442 2.87417 0 0 0
330 1 0.04927738707293308 12.9331 18.6812 4.31104 0 0 0
507 2 0.02648914184121087 8.619919091134404 14.389318279865103 5.69534500384258 0 0 0
509 2 0.02624036926314351 11.48478237066065 14.36160363473985 5.78256432401473 0 0 0
527 2 0.02497733670377256 8.625786697703782 17.25024093389233 5.720529407896772 0 0 0
529 2 0.02930514905768614 11.475565544640046 17.213195217336214 5.740603904008601 0 0 0
146 2 0.02185589028047558 7.18508 21.5552 1.43687 0 0 0
147 2 0.04534350711252084 8.62209 20.1182 0 0 0 0
148 2 0.02250830158946176 10.0591 21.5552 1.43687 0 0 0
149 2 0.04250330322133038 11.4961 20.1182 0 0 0 0
150 1 0.04198330946549641 12.9331 21.5552 1.43687 0 0 0
346 2 0.02987326452316733 7.18508 21.5552 4.31104 0 0 0
347 2 0.02949704713798154 8.62209 20.1182 2.87417 0 0 0
348 2 0.03118912284380804 10.0591 21.5552 4.31104 0 0 0
349 2 0.0258033789217763 11.4961 20.1182 2.87417 0 0 0
350 2 0.02972699426888709 12.9331 21.5552 4.31104 0 0 0
547 1 0.04517933090663212 8.618557393964577 20.133714103838255 5.756697612499036 0 0 0
549 2 0.02474046191520533 11.481447931919691 20.098632809887206 5.770840209460895 0 0 0
111 2 0.04473016929778813 14.3702 14.3702 0 0 0 0
112 2 0.02170720126864692 15.8072 15.8072 1.43687 0 0 0
113 1 0.06294518569572657 17.2442 14.3702 0 0 0 0
114 2 0.02212318626858482 18.6812 15.8072 1.43687 0 0 0
115 1 0.06379323599191858 20.1182 14.3702 0 0 0 0
116 2 0.02261086408419744 21.5552 15.8072 1.43687 0 0 0
131 2 0.04722569471852214 14.3702 17.2442 0 0 0 0
132 2 0.02286954790471348 15.8072 18.6812 1.43687 0 0 0
133 2 0.04652760784757274 17.2442 17.2442 0 0 0 0
134 2 0.02080124152840289 18.6812 18.6812 1.43687 0 0 0
135 2 0.04568012225243845 20.1182 17.2442 0 0 0 0
136 1 0.03901967842887934 21.5552 18.6812 1.43687 0 0 0
311 1 0.04669420966322434 14.3702 14.3702 2.87417 0 0 0
312 2 0.02981883068817806 15.8072 15.8072 4.31104 0 0 0
313 2 0.02872188074164208 17.2442 14.3702 2.87417 0 0 0
314 2 0.03267694232707666 18.6812 15.8072 4.31104 0 0 0
315 2 0.03196579581110653 20.1182 14.3702 2.87417 0 0 0
316 2 0.02892981533652465 21.5552 15.8072 4.31104 0 0 0
331 2 0.02432142728027066 14.3702 17.2442 2.87417 0 0 0
332 1 0.04965816828402417 15.8072 18.6812 4.31104 0 0 0
333 2 0.03160596027553229 17.2442 17.2442 2.87417 0 0 0
334 2 0.02778051576736307 18.6812 18.6812 4.31104 0 0 0
335 2 0.02962528426729394 20.1182 17.2442 2.87417 0 0 0
336 2 0.02532602295174464 21.5552 18.6812 4.31104 0 0 0
511 2 0.02306084420186501 14.392389158073634 14.403445781277851 5.667641352230797 0 0 0
513 2 0.0256222627850043 17.309987188305623 14.353690505920028 5.713871085285893 0 0 0
515 2 0.03092238995068468 20.16400784275614 14.36772496006008 5.7576582627413595 0 0 0
531 2 0.02235112669319841 14.3765008127691 17.206434938754036 5.7197000813526415 0 0 0
533 2 0.02590891598146634 17.274586527228944 17.221814014641883 5.7395364672169 0 0 0
535 2 0.03188741429581208 20.114288423750132 17.259689667118963 5.713450776486731 0 0 0
151 2 0.04235512420145632 14.3702 20.1182 0 0 0 0
152 2 0.02480365664934209 15.8072 21.5552 1.43687 0 0 0
153 1 0.06628256914139072 17.2442 20.1182 0 0 0 0
154 2 0.02074029248800843 18.6812 21.5552 1.43687 0 0 0
155 2 0.044360800373037 20.1182 20.1182 0 0 0 0
156 2 0.02149077056501657 21.5552 21.5552 1.43687 0 0 0
351 2 0.02266000145249684 14.3702 20.1182 2.87417 0 0 0
352 2 0.0313544689122901 15.8072 21.5552 4.31104 0 0 0
353 2 0.02816532395593351 17.2442 20.1182 2.87417 0 0 0
354 2 0.02762566233533154 18.6812 21.5552 4.31104 0 0 0
355 1 0.04801429524406192 20.1182 20.1182 2.87417 0 0 0
356 2 0.02284239297697725 21.5552 21.5552 4.31104 0 0 0
551 2 0.02754346843628924 14.366067303398614 20.135425764637915 5.7840668938341215 0 0 0
553 2 0.02885145792523086 17.262295754369664 20.143080262572433 5.765942522186653 0 0 0
555 2 0.0305578537269734 20.12223643444187 20.171304593370234 5.723128672830247 0 0 0
117 2 0.04756081472233657 22.9922 14.3702 0 0 0 0
118 2 0.02339242039921 24.4293 15.8072 1.43687 0 0 0
119 2 0.04590669970170811 25.8663 14.3702 0 0 0 0
120 1 0.04239405842179011 27.3033 15.8072 1.43687 0 0 0
137 2 0.04726185192142331 22.9922 17.2442 0 0 0 0
138 2 0.02095018732598016 24.4293 18.6812 1.43687 0 0 0
139 2 0.04515719211955618 25.8663 17.2442 0 0 0 0
140 2 0.02145777483177465 27.3033 18.6812 1.43687 0 0 0
317 2 0.03161608030663867 22.9922 14.3702 2.87417 0 0 0
318 2 0.02819707146388772 24.4293 15.8072 4.31104 0 0 0
319 1 0.04499535504817193 25.8663 14.3702 2.87417 0 0 0
320 2 0.02525024599633557 27.3033 15.8072 4.31104 0 0 0
337 2 0.02984789444624309 22.9922 17.2442 2.87417 0 0 0
338 2 0.0304177223891073 24.4293 18.6812 4.31104 0 0 0
339 2 0.03032938594176545 25.8663 17.2442 2.87417 0 0 0
340 2 0.02841877716009925 27.3033 18.6812 4.31104 0 0 0
517 1 0.04860912786444761 22.985821191882177 14.37156020917272 5.846838122037089 0 0 0
519 2 0.02623054257851318 25.800752804758986 14.378414625462362 5.722524028783818 0 0 0
537 2 0.0314733096528124 23.012870550544044 17.206097048658954 5.753551296834958 0 0 0
539 2 0.02663903961116419 25.899857564195443 17.26425739143463 5.673721749473676 0 0 0
157 2 0.04484422945956355 22.9922 20.1182 0 0 0 0
158 2 0.01692864898861736 24.4293 21.5552 1.43687 0 0 0
159 1 0.06419773936785431 25.8663 20.1182 0 0 0 0
160 2 0.01638044975862916 27.3033 21.5552 1.43687 0 0 0
357 1 0.04821125735171672 22.9922 20.1182 2.87417 0 0 0
358 2 0.02492468334319456 24.4293 21.5552 4.31104 0 0 0
359 2 0.03083359565087775 25.8663 20.1182 2.87417 0 0 0
360 2 0.03011012696403636 27.3033 21.5552 4.31104 0 0 0
557 2 0.02966507197420337 22.998549345757546 20.152990273935018 5.781376759190426 0 0 0
559 2 0.03030757840922893 25.867254978114268 20.1274807806621 5.718094333998751 0 0 0
161 2 0.04502026382011966 0 22.9922 0 0 0 0
162 2 0.01760734906993375 1.43701 24.4293 1.43687 0 0 0
163 1 0.05975331992574676 2.87403 22.9922 0 0 0 0
164 2 0.01927783315989415 4.31105 24.4293 1.43687 0 0 0
165 2 0.04258433494336995 5.74806 22.9922 0 0 0 0
181 2 0.04739657048686632 0 25.8663 0 0 0 0
182 2 0.01872902656369366 1.43701 27.3033 1.43687 0 0 0
183 2 0.04841967782805966 2.87403 25.8663 0 0 0 0
184 2 0.02011643104434947 4.31105 27.3033 1.43687 0 0 0
185 2 0.04838205123378317 5.74806 25.8663 0 0 0 0
361 2 0.02551708768103704 0 22.9922 2.87417 0 0 0
362 1 0.04283131581445894 1.43701 24.4293 4.31104 0 0 0
363 1 0.04345151771071686 2.87403 22.9922 2.87417 0 0 0
364 2 0.02710660798124784 4.31105 24.4293 4.31104 0 0 0
365 2 0.0264838532751725 5.74806 22.9922 2.87417 0 0 0
381 1 0.04023055016752469 0 25.8663 2.87417 0 0 0
382 1 0.04016351092363175 1.43701 27.3033 4.31104 0 0 0
383 1 0.04593840305023089 2.87403 25.8663 2.87417 0 0 0
384 2 0.02273425928925583 4.31105 27.3033 4.31104 0 0 0
385 2 0.02716859322921738 5.74806 25.8663 2.87417 0 0 0
561 2 0.02933567357129471 28.72393192084061 22.937939473980702 5.735396837225181 -1 0 0
563 2 0.0279468787018776 2.8985069427491057 22.92598371959353 5.737386711006733 0 0 0
565 2 0.03109929977282012 5.744634733597592 22.981327408739357 5.757873006762197 0 0 0
581 2 0.02248059172127441 28.704417873517297 25.866570000435043 5.777423952452599 -1 0 0
583 2 0.02444484197826208 2.9118341783421573 25.867899056454718 5.719522682433013 0 0 0
585 2 0.02864941639065493 5.7653581160144505 25.88250674523746 5.745417199385827 0 0 0
166 1 0.04021153044055252 7.18508 24.4293 1.43687 0 0 0
167 1 0.06302379845529761 8.62209 22.9922 0 0 0 0
168 2 0.01636600924594385 10.0591 24.4293 1.43687 0 0 0
169 1 0.06255999978496969 11.4961 22.9922 0 0 0 0
170 2 0.02130607581851812 12.9331 24.4293 1.43687 0 0 0
186 2 0.0202588033282108 7.18508 27.3033 1.43687 0 0 0
187 2 0.04223130642852232 8.62209 25.8663 0 0 0 0
188 1 0.04129205273044546 10.0591 27.3033 1.43687 0 0 0
189 2 0.04556470876008453 11.4961 25.8663 0 0 0 0
190 2 0.02134203873863921 12.9331 27.3033 1.43687 0 0 0
366 1 0.04449790184695868 7.18508 24.4293 4.31104 0 0 0
367 2 0.0280197236493531 8.62209 22.9922 2.87417 0 0 0
368 2 0.02485998736580694 10.0591 24.4293 4.31104 0 0 0
369 2 0.02734953860308089 11.4961 22.9922 2.87417 0 0 0
370 1 0.04724139942517804 12.9331 24.4293 4.31104 0 0 0
386 2 0.02449830143479933 7.18508 27.3033 4.31104 0 0 0
387 1 0.04291415774613404 8.62209 25.8663 2.87417 0 0 0
388 2 0.02385663756492526 10.0591 27.3033 4.31104 0 0 0
389 1 0.04397377113783768 11.4961 25.8663 2.87417 0 0 0
390 1 0.04816824235122888 12.9331 27.3033 4.31104 0 0 0
567 2 0.02481582525349964 8.601087776912495 22.956867040970533 5.753472589761833 0 0 0
569 2 0.02841419106963501 11.460495116632961 22.958323430972307 5.704514635945883 0 0 0
587 1 0.04808535736898126 8.608813143458825 25.826353946044417 5.769684699341455 0 0 0
589 2 0.02543053886832956 11.408441465372844 25.86296588500857 5.778429510772387 0 0 0
171 2 0.04574634582611169 14.3702 22.9922 0 0 0 0
172 2 0.02289311022404406 15.8072 24.4293 1.43687 0 0 0
173 2 0.04328927831615062 17.2442 22.9922 0 0 0 0
174 1 0.04239896173620965 18.6812 24.4293 1.43687 0 0 0
175 2 0.04725036633218944 20.1182 22.9922 0 0 0 0
176 2 0.02401332151362551 21.5552 24.4293 1.43687 0 0 0
191 2 0.04607643240177973 14.3702 25.8663 0 0 0 0
192 1 0.04294263801576829 15.8072 27.3033 1.43687 0 0 0
193 1 0.06082449734079054 17.2442 25.8663 0 0 0 0
194 2 0.0173356094490838 18.6812 27.3033 1.43687 0 0 0
195 2 0.04288672917774375 20.1182 25.8663 0 0 0 0
196 2 0.01632619878073758 21.5552 27.3033 1.43687 0 0 0
371 2 0.02841818686829356 14.3702 22.9922 2.87417 0 0 0
372 2 0.03222685128953216 15.8072 24.4293 4.31104 0 0 0
373 2 0.03111065701643832 17.2442 22.9922 2.87417 0 0 0
374 2 0.02649937958836838 18.6812 24.4293 4.31104 0 0 0
375 2 0.02967845169682143 20.1182 22.9922 2.87417 0 0 0
376 2 0.02288914768143236 21.5552 24.4293 4.31104 0 0 0
391 2 0.02460104354089995 14.3702 25.8663 2.87417 0 0 0
392 2 0.03001087125419745 15.8072 27.3033 4.31104 0 0 0
393 2 0.02729343001415588 17.2442 25.8663 2.87417 0 0 0
394 2 0.02879666767628125 18.6812 27.3033 4.31104 0 0 0
395 2 0.03183501816941706 20.1182 25.8663 2.87417 0 0 0
396 2 0.02228721745470185 21.5552 27.3033 4.31104 0 0 0
571 2 0.02953506849576014 14.412369410246612 22.949725930451493 5.7283531381731345 0 0 0
573 2 0.03131479091187216 17.31657726451385 22.971117952778627 5.746909142166148 0 0 0
575 1 0.0466718040674156 20.131907274000387 23.002981906253478 5.784582266720903 0 0 0
591 2 0.02687335812075805 14.424834693597983 25.855370259258933 5.778562570549334 0 0 0
593 2 0.03088990358566945 17.306363872811996 25.86848727009834 5.805349802101376 0 0 0
595 1 0.04427647529379936 20.12866836817208 25.857084484077863 5.780689158485142 0 0 0
177 2 0.04715960520044166 22.9922 22.9922 0 0 0 0
178 2 0.01908320225848677 24.4293 24.4293 1.43687 0 0 0
179 1 0.06459916657546699 25.8663 22.9922 0 0 0 0
180 2 0.02033409606226615 27.3033 24.4293 1.43687 0 0 0
197 1 0.06412230054010723 22.9922 25.8663 0 0 0 0
198 1 0.04116350876760003 24.4293 27.3033 1.43687 0 0 0
199 2 0.04195983805239824 25.8663 25.8663 0 0 0 0
200 1 0.04252437565595602 27.3033 27.3033 1.43687 0 0 0
377 2 0.03281287886623276 22.9922 22.9922 2.87417 0 0 0
378 2 0.02407788779591482 24.4293 24.4293 4.31104 0 0 0
379 1 0.05017565418599314 25.8663 22.9922 2.87417 0 0 0
380 1 0.04251893116851707 27.3033 24.4293 4.31104 0 0 0
397 2 0.0313278471572419 22.9922 25.8663 2.87417 0 0 0
398 2 0.02499951827399707 24.4293 27.3033 4.31104 0 0 0
399 2 0.02219045160188148 25.8663 25.8663 2.87417 0 0 0
400 1 0.04655302621568571 27.3033 27.3033 4.31104 0 0 0