LAMMPS data file via write_data, version 22 Dec 2022, timestep = 1000

3396 atoms
3 atom types

0 28.7403 xlo xhi
0 28.7403 ylo yhi
0 86 zlo zhi

Masses

1 52
2 55.84
3 16

Atoms # charge

1 2 0.05040483771010258 0 0 0 0 0 0
2 2 0.02542353457780753 1.43701 1.43701 1.43687 0 0 0
3 2 0.05181100292585037 2.87403 0 0 0 0 0
4 2 0.02411634098226934 4.31105 1.43701 1.43687 0 0 0
5 2 0.0513285385030938 5.74806 0 0 0 0 0
21 2 0.04880313695983043 0 2.87403 0 0 0 0
22 1 0.04490021693159062 1.43701 4.31105 1.43687 0 0 0
23 2 0.04776178683528262 2.87403 2.87403 0 0 0 0
24 2 0.02436059711713186 4.31105 4.31105 1.43687 0 0 0
25 2 0.05030617519663929 5.74806 2.87403 0 0 0 0
41 2 0.04693765312190087 0 5.74806 0 0 0 0
43 1 0.06551613161062544 2.87403 5.74806 0 0 0 0
45 2 0.04787095430667133 5.74806 5.74806 0 0 0 0
201 2 0.02570181859717879 0 0 2.87417 0 0 0
202 1 0.04742944518430289 1.43701 1.43701 4.31104 0 0 0
203 1 0.04572226537746944 2.87403 0 2.87417 0 0 0
204 2 0.02589681391104465 4.31105 1.43701 4.31104 0 0 0
205 1 0.05334428334355582 5.74806 0 2.87417 0 0 0
221 2 0.02736720193104282 0 2.87403 2.87417 0 0 0
222 2 0.02769204579177876 1.43701 4.31105 4.31104 0 0 0
223 2 0.03088370821670045 2.87403 2.87403 2.87417 0 0 0
224 2 0.03230957697093728 4.31105 4.31105 4.31104 0 0 0
225 2 0.03122643959511531 5.74806 2.87403 2.87417 0 0 0
241 2 0.03027487748843517 0 5.74806 2.87417 0 0 0
243 2 0.02736873898114973 2.87403 5.74806 2.87417 0 0 0
245 2 0.02966106764409732 5.74806 5.74806 2.87417 0 0 0
401 2 0.02505899417978995 0.03722535332424573 28.722794929236557 5.674830917399343 0 -1 0
403 1 0.0432546449952838 2.831846003485481 0.13482367190865102 5.834132352881273 0 0 0
423 2 0.02987985358347232 2.787386190564672 2.956646018407225 5.791396607392107 0 0 0
425 2 0.03237010697216719 5.644258730003823 2.764829513381749 5.901367701238621 0 0 0
441 2 0.02747511656987765 28.735374891586698 5.784864209418101 5.875195110475566 -1 0 0
443 1 0.04855689215235341 3.0216136892909593 5.802237735279932 5.705816372438567 0 0 0
445 2 0.0294495603931574 5.846130730876792 5.730921460777536 5.531321362028619 0 0 0
6 2 0.02151479997342547 7.18508 1.43701 1.43687 0 0 0
7 2 0.05073831790478837 8.62209 0 0 0 0 0
8 2 0.02513369717114451 10.0591 1.43701 1.43687 0 0 0
9 2 0.04927373994828073 11.4961 0 0 0 0 0
10 2 0.02967659163342911 12.9331 1.43701 1.43687 0 0 0
26 1 0.04285784710908148 7.18508 4.31105 1.43687 0 0 0
27 2 0.04849777148998959 8.62209 2.87403 0 0 0 0
28 2 0.02232667993647525 10.0591 4.31105 1.43687 0 0 0
29 2 0.05054979050173145 11.4961 2.87403 0 0 0 0
30 2 0.02391903186676616 12.9331 4.31105 1.43687 0 0 0
47 2 0.04777610546962187 8.62209 5.74806 0 0 0 0
49 1 0.06845391497425306 11.4961 5.74806 0 0 0 0
206 2 0.02921569272872334 7.18508 1.43701 4.31104 0 0 0
207 2 0.03003725075960395 8.62209 0 2.87417 0 0 0
208 2 0.03046585451438139 10.0591 1.43701 4.31104 0 0 0
209 2 0.03009527614184097 11.4961 0 2.87417 0 0 0
210 2 0.03000759296342245 12.9331 1.43701 4.31104 0 0 0
226 2 0.03158560307809823 7.18508 4.31105 4.31104 0 0 0
227 1 0.05069479333303069 8.62209 2.87403 2.87417 0 0 0
228 2 0.02517901449363147 10.0591 4.31105 4.31104 0 0 0
229 2 0.03097190950035165 11.4961 2.87403 2.87417 0 0 0
230 1 0.04490031724346145 12.9331 4.31105 4.31104 0 0 0
247 2 0.03156507556711202 8.62209 5.74806 2.87417 0 0 0
249 2 0.03179589601650239 11.4961 5.74806 2.87417 0 0 0
409 2 0.03146876565202551 11.537813717995931 28.719823438997704 5.938803909703726 0 -1 0
427 2 0.03117250414533668 8.73280293524873 2.9838650239651536 5.7595132574757795 0 0 0
429 1 0.04847415681610517 11.493882461298824 2.9116234227105298 5.742340132675201 0 0 0
447 2 0.03339576343696832 8.685479257957057 5.91374464730422 5.7780609502794515 0 0 0
449 1 0.04668785100098249 11.52040767953498 5.758576994761664 5.740034045868879 0 0 0
431 2 0.02695292287108619 14.151834033263397 2.8067286118219785 5.713967516248244 0 0 0
451 1 0.04694099737635431 14.267795128159417 5.750687107998463 5.729250533331816 0 0 0
11 2 0.04928322759001479 14.3702 0 0 0 0 0
12 2 0.02634493009584023 15.8072 1.43701 1.43687 0 0 0
13 2 0.047184395231033 17.2442 0 0 0 0 0
14 2 0.02345567818494246 18.6812 1.43701 1.43687 0 0 0
15 1 0.06921826675353876 20.1182 0 0 0 0 0
16 2 0.02172493026423169 21.5552 1.43701 1.43687 0 0 0
31 2 0.04922092318672067 14.3702 2.87403 0 0 0 0
32 1 0.04421580810689807 15.8072 4.31105 1.43687 0 0 0
33 2 0.04717208332540555 17.2442 2.87403 0 0 0 0
34 1 0.04647819461030977 18.6812 4.31105 1.43687 0 0 0
35 2 0.04831577443988925 20.1182 2.87403 0 0 0 0
36 2 0.02565833129613924 21.5552 4.31105 1.43687 0 0 0
51 2 0.04605166994622165 14.3702 5.74806 0 0 0 0
53 2 0.04278150206130323 17.2442 5.74806 0 0 0 0
55 2 0.0484181623614793 20.1182 5.74806 0 0 0 0
211 2 0.02938185777702104 14.3702 0 2.87417 0 0 0
212 2 0.03461822426618408 15.8072 1.43701 4.31104 0 0 0
213 2 0.03193186458215051 17.2442 0 2.87417 0 0 0
214 2 0.0297601533298042 18.6812 1.43701 4.31104 0 0 0
215 1 0.04986391278419117 20.1182 0 2.87417 0 0 0
216 1 0.04650653538653268 21.5552 1.43701 4.31104 0 0 0
231 2 0.0306355526359132 14.3702 2.87403 2.87417 0 0 0
232 2 0.02982052004247547 15.8072 4.31105 4.31104 0 0 0
233 2 0.03000236463894786 17.2442 2.87403 2.87417 0 0 0
234 2 0.0305007012770738 18.6812 4.31105 4.31104 0 0 0
235 2 0.0266861401933524 20.1182 2.87403 2.87417 0 0 0
236 1 0.04990282986773351 21.5552 4.31105 4.31104 0 0 0
251 2 0.02735516590670221 14.3702 5.74806 2.87417 0 0 0
253 2 0.02878297714816543 17.2442 5.74806 2.87417 0 0 0
255 2 0.02637711083578594 20.1182 5.74806 2.87417 0 0 0
411 2 0.03306175038814145 14.444830167245184 28.703896873166748 5.790836113232942 0 -1 0
413 2 0.03211480444352333 17.281255859414177 0.10196541487379754 5.7347253268035905 0 0 0
433 2 0.03163732663093271 17.216024015340164 2.796716498087684 5.702160751464308 0 0 0
435 2 0.02817180744473703 19.947270827044033 2.7942966612430244 5.548832577370581 0 0 0
453 2 0.02746307524195695 17.09578577070949 5.618008758492599 5.789108438680909 0 0 0
455 1 0.04420305808268749 20.0244831276679 5.8079947137463686 5.64429806524977 0 0 0
421 1 0.04714400777051511 28.648498130602142 2.9878705506761216 5.756475264393697 -1 0 0
17 2 0.04681168288451905 22.9922 0 0 0 0 0
18 2 0.0205141063982904 24.4293 1.43701 1.43687 0 0 0
19 2 0.04656014249676153 25.8663 0 0 0 0 0
20 2 0.02531250858590047 27.3033 1.43701 1.43687 0 0 0
37 2 0.05116877399937696 22.9922 2.87403 0 0 0 0
38 2 0.01967146988309414 24.4293 4.31105 1.43687 0 0 0
39 1 0.06677991268467418 25.8663 2.87403 0 0 0 0
40 2 0.01940638188782033 27.3033 4.31105 1.43687 0 0 0
57 1 0.06760273009368156 22.9922 5.74806 0 0 0 0
59 1 0.06688031673384184 25.8663 5.74806 0 0 0 0
217 1 0.04669202248725557 22.9922 0 2.87417 0 0 0
218 1 0.04968095713029415 24.4293 1.43701 4.31104 0 0 0
219 2 0.02517060321420703 25.8663 0 2.87417 0 0 0
220 2 0.02641845456170532 27.3033 1.43701 4.31104 0 0 0
237 2 0.02757443407803645 22.9922 2.87403 2.87417 0 0 0
238 2 0.02880726436994926 24.4293 4.31105 4.31104 0 0 0
239 1 0.04987523374512107 25.8663 2.87403 2.87417 0 0 0
240 1 0.04560416777502965 27.3033 4.31105 4.31104 0 0 0
257 2 0.03029210865813678 22.9922 5.74806 2.87417 0 0 0
259 2 0.02974766927004679 25.8663 5.74806 2.87417 0 0 0
437 2 0.02774928686065036 23.020183925814816 2.790037897173288 5.916078676165527 0 0 0
439 2 0.02107897646963667 25.848439744096666 2.7794237976061043 5.793903016382089 0 0 0
457 2 0.02626727529076595 22.91328564996078 5.707658971683779 5.598431591102587 0 0 0
459 1 0.04292759747907155 26.007719408240476 5.782158259537694 5.709289113737439 0 0 0
42 2 0.02500639103379251 1.43701 7.18508 1.43687 0 0 0
44 2 0.02568474481763566 4.31105 7.18508 1.43687 0 0 0
61 2 0.04943890563521253 0 8.62209 0 0 0 0
63 2 0.0502619335320898 2.87403 8.62209 0 0 0 0
65 2 0.05067078783843519 5.74806 8.62209 0 0 0 0
242 2 0.03201309704381481 1.43701 7.18508 4.31104 0 0 0
244 1 0.04566552264104325 4.31105 7.18508 4.31104 0 0 0
261 2 0.03065564167805361 0 8.62209 2.87417 0 0 0
263 2 0.03378290760379081 2.87403 8.62209 2.87417 0 0 0
265 2 0.03049890277411424 5.74806 8.62209 2.87417 0 0 0
463 2 0.02625981705354612 2.9398701655957384 8.488241339125072 5.827844363083316 0 0 0
465 1 0.04865266492682754 5.759829846755417 8.683810995872987 5.765419350713615 0 0 0
62 2 0.02691203337744428 1.43701 10.0591 1.43687 0 0 0
64 2 0.02314867520013188 4.31105 10.0591 1.43687 0 0 0
81 2 0.04984783626178634 0 11.4961 0 0 0 0
82 2 0.02683747436071433 1.43701 12.9331 1.43687 0 0 0
83 2 0.05111944456724555 2.87403 11.4961 0 0 0 0
84 2 0.01725306965012088 4.31105 12.9331 1.43687 0 0 0
85 1 0.06653610255084988 5.74806 11.4961 0 0 0 0
262 2 0.03506221004605556 1.43701 10.0591 4.31104 0 0 0
264 2 0.02783966476780522 4.31105 10.0591 4.31104 0 0 0
281 2 0.02884728606916719 0 11.4961 2.87417 0 0 0
282 2 0.03077602824984377 1.43701 12.9331 4.31104 0 0 0
283 2 0.03238767196119643 2.87403 11.4961 2.87417 0 0 0
284 2 0.03075027934603811 4.31105 12.9331 4.31104 0 0 0
285 1 0.05340221153199115 5.74806 11.4961 2.87417 0 0 0
481 2 0.03050978268333809 0.0900216004371149 11.618904443843594 5.609335380998628 0 0 0
483 2 0.03309795006276886 3.09800195329031 11.476418236609542 5.759818702595758 0 0 0
485 2 0.02768782651058551 5.748336608190632 11.420435744787127 5.918375759128364 0 0 0
505 2 0.03006545839708338 5.909564394361408 14.557422224413529 5.654135328133786 0 0 0
46 2 0.02763044213163727 7.18508 7.18508 1.43687 0 0 0
48 2 0.02481258547400699 10.0591 7.18508 1.43687 0 0 0
50 2 0.02627651724354713 12.9331 7.18508 1.43687 0 0 0
67 2 0.05152245393049275 8.62209 8.62209 0 0 0 0
69 2 0.04972217293729894 11.4961 8.62209 0 0 0 0
246 2 0.03060047976715397 7.18508 7.18508 4.31104 0 0 0
248 2 0.03198466546377133 10.0591 7.18508 4.31104 0 0 0
250 2 0.0278908476999915 12.9331 7.18508 4.31104 0 0 0
267 2 0.03508542147472758 8.62209 8.62209 2.87417 0 0 0
269 2 0.03336366947081255 11.4961 8.62209 2.87417 0 0 0
467 2 0.03053133755145444 8.746835331366452 8.647672044910008 5.800120553733647 0 0 0
469 2 0.03039144884810847 11.494422063875474 8.670961917781941 6.008131973148393 0 0 0
66 2 0.02258029798561378 7.18508 10.0591 1.43687 0 0 0
68 2 0.02788021973999303 10.0591 10.0591 1.43687 0 0 0
70 2 0.02504291413975947 12.9331 10.0591 1.43687 0 0 0
86 2 0.01779575047463487 7.18508 12.9331 1.43687 0 0 0
87 2 0.04902072949331217 8.62209 11.4961 0 0 0 0
88 2 0.02607072782601749 10.0591 12.9331 1.43687 0 0 0
89 2 0.05243141351570664 11.4961 11.4961 0 0 0 0
90 2 0.02211007396159913 12.9331 12.9331 1.43687 0 0 0
266 2 0.02845103822404748 7.18508 10.0591 4.31104 0 0 0
268 2 0.03231576780531626 10.0591 10.0591 4.31104 0 0 0
270 1 0.05056042577641212 12.9331 10.0591 4.31104 0 0 0
286 2 0.03120762197068386 7.18508 12.9331 4.31104 0 0 0
287 2 0.03378726651667274 8.62209 11.4961 2.87417 0 0 0
288 2 0.03246019933035461 10.0591 12.9331 4.31104 0 0 0
289 2 0.02814321714089711 11.4961 11.4961 2.87417 0 0 0
290 1 0.0486970844892185 12.9331 12.9331 4.31104 0 0 0
487 2 0.02903292181599137 8.686546981745705 11.495243718208231 5.566023883112199 0 0 0
489 2 0.02823368386858536 11.632447523319263 11.51406220986221 5.781620568282238 0 0 0
509 2 0.02621298647301647 11.407193174432674 14.429113504763219 5.819014042020533 0 0 0
52 1 0.04269344870403555 15.8072 7.18508 1.43687 0 0 0
54 2 0.02553171505930046 18.6812 7.18508 1.43687 0 0 0
56 2 0.02311350239282369 21.5552 7.18508 1.43687 0 0 0
71 2 0.04657932660238416 14.3702 8.62209 0 0 0 0
73 1 0.06444603130165004 17.2442 8.62209 0 0 0 0
75 2 0.05138962590457175 20.1182 8.62209 0 0 0 0
252 2 0.03302124707206654 15.8072 7.18508 4.31104 0 0 0
254 2 0.02979194766110313 18.6812 7.18508 4.31104 0 0 0
256 1 0.04538663310465911 21.5552 7.18508 4.31104 0 0 0
271 2 0.02788553562146255 14.3702 8.62209 2.87417 0 0 0
273 2 0.02890753958120214 17.2442 8.62209 2.87417 0 0 0
275 2 0.0325890671457958 20.1182 8.62209 2.87417 0 0 0
471 2 0.03357649855051392 14.554588999999995 8.570556686958541 5.690330781666235 0 0 0
473 2 0.02950769196053002 17.26100498183206 8.57749410266444 5.5790164427398246 0 0 0
475 2 0.02766515904155305 20.112930620287802 8.635003004425206 5.618935870085041 0 0 0
72 1 0.03821444732067512 15.8072 10.0591 1.43687 0 0 0
74 2 0.02332995501437835 18.6812 10.0591 1.43687 0 0 0
76 2 0.02442137823844814 21.5552 10.0591 1.43687 0 0 0
91 2 0.04811941275488604 14.3702 11.4961 0 0 0 0
92 1 0.03669811206456973 15.8072 12.9331 1.43687 0 0 0
93 2 0.04465737805496436 17.2442 11.4961 0 0 0 0
94 2 0.02012513306230231 18.6812 12.9331 1.43687 0 0 0
95 2 0.05136717295298901 20.1182 11.4961 0 0 0 0
96 2 0.02545656058650779 21.5552 12.9331 1.43687 0 0 0
272 2 0.02468536340603891 15.8072 10.0591 4.31104 0 0 0
274 2 0.02947587981195237 18.6812 10.0591 4.31104 0 0 0
276 2 0.03006184258391861 21.5552 10.0591 4.31104 0 0 0
291 1 0.04210588626891475 14.3702 11.4961 2.87417 0 0 0
292 2 0.02316006737781479 15.8072 12.9331 4.31104 0 0 0
293 1 0.04804130685135997 17.2442 11.4961 2.87417 0 0 0
294 2 0.02984508942665461 18.6812 12.9331 4.31104 0 0 0
295 2 0.03475140959128203 20.1182 11.4961 2.87417 0 0 0
296 2 0.03143719025031252 21.5552 12.9331 4.31104 0 0 0
491 2 0.02508335143815754 14.347548884574351 11.42450064004909 5.699826613798725 0 0 0
493 1 0.0496628303291123 17.235510876955225 11.491790521013304 5.710807317057283 0 0 0
495 2 0.03288160178403083 20.129136512770014 11.522414145179463 5.752769382408119 0 0 0
513 2 0.02715909642932976 17.15348274359003 14.407758987453818 5.736764687564051 0 0 0
515 2 0.03352352103259935 20.172200744702035 14.349800857153227 5.805078463233192 0 0 0
461 2 0.02804857028196445 0.0020027989496063906 8.679194669529291 5.6741794253059625 0 0 0
58 2 0.02207593388317407 24.4293 7.18508 1.43687 0 0 0
60 2 0.02601101927939469 27.3033 7.18508 1.43687 0 0 0
77 2 0.04731570751655687 22.9922 8.62209 0 0 0 0
79 2 0.04638166764405696 25.8663 8.62209 0 0 0 0
258 2 0.02635562579855558 24.4293 7.18508 4.31104 0 0 0
260 1 0.04685554164047439 27.3033 7.18508 4.31104 0 0 0
277 1 0.04929633649746687 22.9922 8.62209 2.87417 0 0 0
279 2 0.02547203408620874 25.8663 8.62209 2.87417 0 0 0
477 2 0.02717044634643258 22.99738747373053 8.552103509737384 5.705034038219048 0 0 0
479 1 0.04648874679549315 25.8713221093427 8.681814016320306 5.653337567244704 0 0 0
78 1 0.04087057967327191 24.4293 10.0591 1.43687 0 0 0
80 1 0.04363662416977952 27.3033 10.0591 1.43687 0 0 0
97 2 0.05004870430485635 22.9922 11.4961 0 0 0 0
98 2 0.02365912819038026 24.4293 12.9331 1.43687 0 0 0
99 2 0.0467832718770969 25.8663 11.4961 0 0 0 0
100 2 0.02064734252991116 27.3033 12.9331 1.43687 0 0 0
278 2 0.02780975393911873 24.4293 10.0591 4.31104 0 0 0
280 2 0.02600967123875558 27.3033 10.0591 4.31104 0 0 0
297 2 0.0312963581671525 22.9922 11.4961 2.87417 0 0 0
298 2 0.02620858438964264 24.4293 12.9331 4.31104 0 0 0
299 1 0.04513427597600742 25.8663 11.4961 2.87417 0 0 0
300 1 0.0483191930965262 27.3033 12.9331 4.31104 0 0 0
497 2 0.03366711177543869 22.850955517568732 11.534573718649616 5.831501309241231 0 0 0
499 2 0.02945612036354792 25.79787116392361 11.685274927305837 5.616153261777815 0 0 0
101 2 0.05009131635181858 0 14.3702 0 0 0 0
102 2 0.02472389266973229 1.43701 15.8072 1.43687 0 0 0
103 2 0.04929677765204236 2.87403 14.3702 0 0 0 0
104 2 0.02359001532503578 4.31105 15.8072 1.43687 0 0 0
105 1 0.06714831404751352 5.74806 14.3702 0 0 0 0
121 2 0.04844352669628327 0 17.2442 0 0 0 0
122 2 0.02272782642480406 1.43701 18.6812 1.43687 0 0 0
123 2 0.0517158249010506 2.87403 17.2442 0 0 0 0
124 2 0.02488198433080892 4.31105 18.6812 1.43687 0 0 0
125 2 0.04811385011111935 5.74806 17.2442 0 0 0 0
301 2 0.02860929336458432 0 14.3702 2.87417 0 0 0
302 2 0.02813623185032747 1.43701 15.8072 4.31104 0 0 0
303 1 0.05346017143768553 2.87403 14.3702 2.87417 0 0 0
304 2 0.02849429810504375 4.31105 15.8072 4.31104 0 0 0
305 2 0.0321638861825894 5.74806 14.3702 2.87417 0 0 0
321 2 0.03099291921036877 0 17.2442 2.87417 0 0 0
322 1 0.04610179372355357 1.43701 18.6812 4.31104 0 0 0
323 2 0.03206101505534019 2.87403 17.2442 2.87417 0 0 0
324 2 0.0316487971250022 4.31105 18.6812 4.31104 0 0 0
325 2 0.03355071077048268 5.74806 17.2442 2.87417 0 0 0
501 2 0.03008750155323921 28.630611468768166 14.457948805205872 5.852427558939531 -1 0 0
503 2 0.02900108594445857 2.8985322602643526 14.510989617485373 5.7600789531343 0 0 0
521 1 0.04350777227924475 0.01679557514748144 17.162845666911878 5.766801656206047 0 0 0
523 1 0.04410626325096968 2.851298050870134 17.305336112825074 5.846779586913106 0 0 0
525 2 0.02682566723052879 5.7604724262261975 17.163360526908 5.766733073684751 0 0 0
141 1 0.06457720861158117 0 20.1182 0 0 0 0
142 1 0.03759133089845213 1.43701 21.5552 1.43687 0 0 0
143 1 0.06173021449040689 2.87403 20.1182 0 0 0 0
144 1 0.03996050743031808 4.31105 21.5552 1.43687 0 0 0
145 2 0.04633892602341071 5.74806 20.1182 0 0 0 0
341 2 0.03286134044144477 0 20.1182 2.87417 0 0 0
342 2 0.02755717102979753 1.43701 21.5552 4.31104 0 0 0
343 2 0.02558950328627418 2.87403 20.1182 2.87417 0 0 0
344 2 0.02998985165390481 4.31105 21.5552 4.31104 0 0 0
345 2 0.03149218279890326 5.74806 20.1182 2.87417 0 0 0
543 1 0.04731076916924171 2.8961557909746696 20.240612279597254 5.730276788980556 0 0 0
545 2 0.02919840368211855 5.788526209942673 19.979902740239837 5.769947869054767 0 0 0
106 2 0.02170985275051369 7.18508 15.8072 1.43687 0 0 0
107 1 0.06712194913920796 8.62209 14.3702 0 0 0 0
108 2 0.02585684255533167 10.0591 15.8072 1.43687 0 0 0
109 2 0.05056713521759603 11.4961 14.3702 0 0 0 0
110 2 0.02589307381549203 12.9331 15.8072 1.43687 0 0 0
126 1 0.04570434423381611 7.18508 18.6812 1.43687 0 0 0
127 2 0.04766708976390217 8.62209 17.2442 0 0 0 0
128 2 0.02703588028191495 10.0591 18.6812 1.43687 0 0 0
129 2 0.04935823304563237 11.4961 17.2442 0 0 0 0
130 1 0.04448664080369312 12.9331 18.6812 1.43687 0 0 0
306 2 0.03429438187597739 7.18508 15.8072 4.31104 0 0 0
307 2 0.03369960863926159 8.62209 14.3702 2.87417 0 0 0
308 2 0.03466584269017462 10.0591 15.8072 4.31104 0 0 0
309 2 0.03148590566567722 11.4961 14.3702 2.87417 0 0 0
310 2 0.0300827204376122 12.9331 15.8072 4.31104 0 0 0
326 2 0.02900068231770611 7.18508 18.6812 4.31104 0 0 0
327 2 0.03223130847109043 8.62209 17.2442 2.87417 0 0 0
328 2 0.0319220249854777 10.0591 18.6812 4.31104 0 0 0
329 2 0.02936134237359908 11.4961 17.2442 2.87417 0 0 0
330 1 0.05059182131000058 12.9331 18.6812 4.31104 0 0 0
507 2 0.02770930139513581 8.797815053533263 14.318140137983065 5.715953589970704 0 0 0
527 2 0.02810622554794048 8.774553897859517 17.26154227577714 5.789370181940696 0 0 0
529 2 0.03118524007919531 11.571081138310333 17.143334021077276 5.732436861386325 0 0 0
146 2 0.02344964492724496 7.18508 21.5552 1.43687 0 0 0
147 2 0.0484634850600574 8.62209 20.1182 0 0 0 0
148 2 0.02419224625713658 10.0591 21.5552 1.43687 0 0 0
149 2 0.04559553658582692 11.4961 20.1182 0 0 0 0
150 1 0.04342073473624913 12.9331 21.5552 1.43687 0 0 0
346 2 0.03239734224852037 7.18508 21.5552 4.31104 0 0 0
347 2 0.03110828882373454 8.62209 20.1182 2.87417 0 0 0
348 2 0.03299732942364796 10.0591 21.5552 4.31104 0 0 0
349 2 0.02773984989484531 11.4961 20.1182 2.87417 0 0 0
350 2 0.03210200364877159 12.9331 21.5552 4.31104 0 0 0
547 1 0.04743560345675113 8.526275807679093 20.14659012553582 5.715936983754013 0 0 0
549 2 0.02619726786970884 11.363023996122262 19.983692704759694 5.708386791954606 0 0 0
551 2 0.028624272223608 14.216937945817117 20.170043142817693 5.698355698279473 0 0 0
111 2 0.04783981597792039 14.3702 14.3702 0 0 0 0
112 2 0.02330410269477865 15.8072 15.8072 1.43687 0 0 0
113 1 0.06588785610927081 17.2442 14.3702 0 0 0 0
114 2 0.02354702316020999 18.6812 15.8072 1.43687 0 0 0
115 1 0.06673517727561432 20.1182 14.3702 0 0 0 0
116 2 0.02418641263436143 21.5552 15.8072 1.43687 0 0 0
131 2 0.0502917110399016 14.3702 17.2442 0 0 0 0
132 2 0.02446530496195756 15.8072 18.6812 1.43687 0 0 0
133 2 0.04965089043607711 17.2442 17.2442 0 0 0 0
134 2 0.02226023388598156 18.6812 18.6812 1.43687 0 0 0
135 2 0.04877975758904311 20.1182 17.2442 0 0 0 0
136 1 0.04047650127777459 21.5552 18.6812 1.43687 0 0 0
311 1 0.04861834174690566 14.3702 14.3702 2.87417 0 0 0
312 2 0.0318617940319789 15.8072 15.8072 4.31104 0 0 0
313 2 0.03068108737540565 17.2442 14.3702 2.87417 0 0 0
314 2 0.03616449480092974 18.6812 15.8072 4.31104 0 0 0
315 2 0.03397969851192831 20.1182 14.3702 2.87417 0 0 0
316 2 0.03095447296846698 21.5552 15.8072 4.31104 0 0 0
331 2 0.02650755586352053 14.3702 17.2442 2.87417 0 0 0
332 1 0.05179567640023509 15.8072 18.6812 4.31104 0 0 0
333 2 0.03371009389280921 17.2442 17.2442 2.87417 0 0 0
334 2 0.03062334552191753 18.6812 18.6812 4.31104 0 0 0
335 2 0.03208034705148975 20.1182 17.2442 2.87417 0 0 0
336 2 0.02681341093108319 21.5552 18.6812 4.31104 0 0 0
511 2 0.02469413580469958 14.326623277069228 14.468212812293611 5.7331394478468285 0 0 0
531 2 0.02500599284928728 14.461291051673435 17.368729484028805 5.808137382942121 0 0 0
533 2 0.02949072447039926 17.209838566119537 17.34144145263076 5.896447532011718 0 0 0
535 2 0.03478063238368973 20.086645923717008 17.26368680068393 5.893528979856294 0 0 0
151 2 0.04547953459354809 14.3702 20.1182 0 0 0 0
152 2 0.02636985768433634 15.8072 21.5552 1.43687 0 0 0
153 1 0.06921761067324941 17.2442 20.1182 0 0 0 0
154 2 0.02223084616807283 18.6812 21.5552 1.43687 0 0 0
155 2 0.04746394116210764 20.1182 20.1182 0 0 0 0
156 2 0.0231983817414888 21.5552 21.5552 1.43687 0 0 0
351 2 0.02449612582860612 14.3702 20.1182 2.87417 0 0 0
352 2 0.03351948251837958 15.8072 21.5552 4.31104 0 0 0
353 2 0.03020247771272744 17.2442 20.1182 2.87417 0 0 0
354 2 0.03025414762043581 18.6812 21.5552 4.31104 0 0 0
355 1 0.0501096697537852 20.1182 20.1182 2.87417 0 0 0
356 2 0.02489546005463017 21.5552 21.5552 4.31104 0 0 0
553 2 0.03182501282496423 17.345690186219432 20.126291920276866 5.840166126997799 0 0 0
555 2 0.03552900615346266 20.096991240950814 20.122935757091316 5.849640434281308 0 0 0
541 2 0.02559969751336398 0.17021623752583623 20.175914288525494 5.796305648314959 0 0 0
117 2 0.05064820185503398 22.9922 14.3702 0 0 0 0
118 2 0.02503049827497413 24.4293 15.8072 1.43687 0 0 0
119 2 0.04899955645638326 25.8663 14.3702 0 0 0 0
120 1 0.04384925529799082 27.3033 15.8072 1.43687 0 0 0
137 2 0.0503438018930512 22.9922 17.2442 0 0 0 0
138 2 0.02255859587549341 24.4293 18.6812 1.43687 0 0 0
139 2 0.04824089044223621 25.8663 17.2442 0 0 0 0
140 2 0.02292714798083428 27.3033 18.6812 1.43687 0 0 0
317 2 0.03358538696331353 22.9922 14.3702 2.87417 0 0 0
318 2 0.0301906084547864 24.4293 15.8072 4.31104 0 0 0
319 1 0.04659363015060232 25.8663 14.3702 2.87417 0 0 0
320 2 0.02690012144870134 27.3033 15.8072 4.31104 0 0 0
337 2 0.03185788643269174 22.9922 17.2442 2.87417 0 0 0
338 2 0.03261190680564661 24.4293 18.6812 4.31104 0 0 0
339 2 0.03261870442358019 25.8663 17.2442 2.87417 0 0 0
340 2 0.03141996489280718 27.3033 18.6812 4.31104 0 0 0
517 1 0.05066875088497927 23.050472542459723 14.373004520400437 5.832564222210287 0 0 0
519 2 0.02782092317139486 25.841591466252805 14.486360910197902 5.697508899892572 0 0 0
537 2 0.03225013412654764 22.833648204842497 17.238306169035376 5.723322855098414 0 0 0
539 2 0.028101028280695 25.869112564381375 17.133635620604544 5.760481646882791 0 0 0
157 2 0.04793857106058032 22.9922 20.1182 0 0 0 0
158 2 0.01871147401083699 24.4293 21.5552 1.43687 0 0 0
159 1 0.06710626701540962 25.8663 20.1182 0 0 0 0
160 2 0.01806435920930451 27.3033 21.5552 1.43687 0 0 0
357 1 0.04979582945393911 22.9922 20.1182 2.87417 0 0 0
358 2 0.02648477363230262 24.4293 21.5552 4.31104 0 0 0
359 2 0.03292046081774133 25.8663 20.1182 2.87417 0 0 0
360 2 0.03165776504544641 27.3033 21.5552 4.31104 0 0 0
557 2 0.03085089987414099 23.04748371805314 20.028882953983068 5.688058947468993 0 0 0
559 2 0.03223338756532475 25.97049619455157 20.08891232328922 5.733397035640977 0 0 0
405 2 0.02781283941492301 5.651547598693747 0.0655876274636892 5.614186514232598 0 0 0
161 2 0.04809689935323683 0 22.9922 0 0 0 0
162 2 0.0193673503042705 1.43701 24.4293 1.43687 0 0 0
163 1 0.06263506583741768 2.87403 22.9922 0 0 0 0
164 2 0.02087436961819175 4.31105 24.4293 1.43687 0 0 0
165 2 0.04567618246424623 5.74806 22.9922 0 0 0 0
181 2 0.05045063358507155 0 25.8663 0 0 0 0
182 2 0.02046798945341742 1.43701 27.3033 1.43687 0 0 0
183 2 0.05149902524339139 2.87403 25.8663 0 0 0 0
184 2 0.02166325587094418 4.31105 27.3033 1.43687 0 0 0
185 2 0.051459514570504 5.74806 25.8663 0 0 0 0
361 2 0.02715942497507696 0 22.9922 2.87417 0 0 0
362 1 0.04439188110808176 1.43701 24.4293 4.31104 0 0 0
363 1 0.04540837914085313 2.87403 22.9922 2.87417 0 0 0
364 2 0.02976271854743798 4.31105 24.4293 4.31104 0 0 0
365 2 0.02859330746288137 5.74806 22.9922 2.87417 0 0 0
381 1 0.04191003954934869 0 25.8663 2.87417 0 0 0
382 1 0.04174786215681893 1.43701 27.3033 4.31104 0 0 0
383 1 0.04768594176575533 2.87403 25.8663 2.87417 0 0 0
384 2 0.02691122971525844 4.31105 27.3033 4.31104 0 0 0
385 2 0.02904508058023095 5.74806 25.8663 2.87417 0 0 0
563 2 0.03029678754794825 2.9265668878189244 22.98049371403362 5.751185996451276 0 0 0
565 2 0.03259085024961268 5.828824435436996 22.94372707013684 5.732910860777327 0 0 0
583 2 0.0287847172330471 2.7921138746598033 25.985223868623965 5.797637791984796 0 0 0
585 2 0.0306647363317594 5.996676095674567 25.862300895856972 5.733175713995764 0 0 0
407 2 0.035728954965939 8.523913811643881 0.12910465227030538 5.725837590851785 0 0 0
166 1 0.04176474232978193 7.18508 24.4293 1.43687 0 0 0
167 1 0.06587350421528179 8.62209 22.9922 0 0 0 0
168 2 0.01825409394233891 10.0591 24.4293 1.43687 0 0 0
169 1 0.06543821271813216 11.4961 22.9922 0 0 0 0
170 2 0.02296807970503643 12.9331 24.4293 1.43687 0 0 0
186 2 0.02200430384040396 7.18508 27.3033 1.43687 0 0 0
187 2 0.04531296394663048 8.62209 25.8663 0 0 0 0
188 1 0.04260521699721762 10.0591 27.3033 1.43687 0 0 0
189 2 0.0486599483525271 11.4961 25.8663 0 0 0 0
190 2 0.02288757484274559 12.9331 27.3033 1.43687 0 0 0
366 1 0.04519804417340875 7.18508 24.4293 4.31104 0 0 0
367 2 0.03025021172444196 8.62209 22.9922 2.87417 0 0 0
368 2 0.02444239249232304 10.0591 24.4293 4.31104 0 0 0
369 2 0.02935964720955931 11.4961 22.9922 2.87417 0 0 0
370 1 0.04857906731867682 12.9331 24.4293 4.31104 0 0 0
386 2 0.02684662274743922 7.18508 27.3033 4.31104 0 0 0
387 1 0.04466691389927467 8.62209 25.8663 2.87417 0 0 0
388 2 0.02717586559135531 10.0591 27.3033 4.31104 0 0 0
389 1 0.04575124107739038 11.4961 25.8663 2.87417 0 0 0
390 1 0.05048452086489965 12.9331 27.3033 4.31104 0 0 0
567 2 0.02527511845411222 8.724201006511127 22.990584058620627 5.7385358753373525 0 0 0
569 2 0.02997882530544455 11.408216372092362 23.051016971404 5.638955430786529 0 0 0
587 1 0.04770178322210905 8.709508734957273 25.69241459572351 5.683877035537218 0 0 0
589 2 0.02599580649712518 11.446004037560302 25.694433292551448 5.732808805056317 0 0 0
415 2 0.02772885550472091 19.897656954587518 28.668007143765312 5.736888956915989 0 -1 0
171 2 0.04881672418187562 14.3702 22.9922 0 0 0 0
172 2 0.02455790324748182 15.8072 24.4293 1.43687 0 0 0
173 2 0.04638573858690057 17.2442 22.9922 0 0 0 0
174 1 0.04379930293483835 18.6812 24.4293 1.43687 0 0 0
175 2 0.05030478150416823 20.1182 22.9922 0 0 0 0
176 2 0.02585971612293195 21.5552 24.4293 1.43687 0 0 0
191 2 0.04915519436302141 14.3702 25.8663 0 0 0 0
192 1 0.04434551580166468 15.8072 27.3033 1.43687 0 0 0
193 1 0.06377878200214247 17.2442 25.8663 0 0 0 0
194 2 0.01901984066751441 18.6812 27.3033 1.43687 0 0 0
195 2 0.04594896986507443 20.1182 25.8663 0 0 0 0
196 2 0.01804392521888637 21.5552 27.3033 1.43687 0 0 0
371 2 0.03059932883708191 14.3702 22.9922 2.87417 0 0 0
372 2 0.0333649245934375 15.8072 24.4293 4.31104 0 0 0
373 2 0.03343126749789216 17.2442 22.9922 2.87417 0 0 0
374 2 0.0285153965915845 18.6812 24.4293 4.31104 0 0 0
375 2 0.0318193592675115 20.1182 22.9922 2.87417 0 0 0
376 2 0.02369937159279772 21.5552 24.4293 4.31104 0 0 0
391 2 0.02675519547330804 14.3702 25.8663 2.87417 0 0 0
392 2 0.0322580113611322 15.8072 27.3033 4.31104 0 0 0
393 2 0.02906771672653278 17.2442 25.8663 2.87417 0 0 0
394 2 0.02991868446041548 18.6812 27.3033 4.31104 0 0 0
395 2 0.03395652524620711 20.1182 25.8663 2.87417 0 0 0
396 2 0.023471338148938 21.5552 27.3033 4.31104 0 0 0
571 2 0.02983383041623298 14.36176693501849 22.9956946300006 5.744337684385335 0 0 0
573 2 0.03383384597222601 17.06716902345185 22.919049556923262 5.836425932490947 0 0 0
575 1 0.04865338832638455 20.050742450407945 23.125907451084714 5.769876297664724 0 0 0
591 2 0.0279124253645096 14.356097775060693 25.809863830646158 5.799218864172566 0 0 0
593 2 0.03450552352113038 17.193664343654174 25.850943870878996 5.721168595512365 0 0 0
595 1 0.04575187640804686 20.073629865723117 25.939860054972232 5.770605517266228 0 0 0
417 2 0.02559822828458592 22.85313567907345 0.00545580105672272 5.726564214027659 0 0 0
419 2 0.0290133668362628 25.906095511663068 0.03488798851120068 5.8469092251833485 0 0 0
561 2 0.03199773328056047 0.012706464804507852 22.925314760207865 5.607873782279027 0 0 0
581 2 0.02371549379487987 0.006091480544053221 25.88926852363637 5.70549009329944 0 0 0
177 2 0.0502063525897501 22.9922 22.9922 0 0 0 0
178 2 0.02099652554422079 24.4293 24.4293 1.43687 0 0 0
179 1 0.067425493806264 25.8663 22.9922 0 0 0 0
180 2 0.02207574734374344 27.3033 24.4293 1.43687 0 0 0
197 1 0.06699378685723963 22.9922 25.8663 0 0 0 0
198 1 0.04266982640654226 24.4293 27.3033 1.43687 0 0 0
199 2 0.04504428450780788 25.8663 25.8663 0 0 0 0
200 1 0.04402250392593522 27.3033 27.3033 1.43687 0 0 0
377 2 0.0341508257901452 22.9922 22.9922 2.87417 0 0 0
378 2 0.02501576676083671 24.4293 24.4293 4.31104 0 0 0
379 1 0.05214923398650344 25.8663 22.9922 2.87417 0 0 0
380 1 0.04437065734133555 27.3033 24.4293 4.31104 0 0 0
397 2 0.03284798461479699 22.9922 25.8663 2.87417 0 0 0
398 2 0.02699606224731437 24.4293 27.3033 4.31104 0 0 0
399 2 0.02391234397709211 25.8663 25.8663 2.87417 0 0 0
400 1 0.04858136459666744 27.3033 27.3033 4.31104 0 0 0