ITEM: TIMESTEP
0
ITEM: NUMBER OF ATOMS
3396
ITEM: BOX BOUNDS pp pp ff
0.0000000000000000e+00 2.8740300000000001e+01
0.0000000000000000e+00 2.8740300000000001e+01
0.0000000000000000e+00 8.6000000000000000e+01
ITEM: ATOMS id type q x y z
1 2 0.0473305 0 0 0
2 2 0.023795 1.43701 1.43701 1.43687
3 2 0.0487527 2.87403 0 0
4 2 0.0224733 4.31105 1.43701 1.43687
5 2 0.048203 5.74806 0 0
6 2 0.0198926 7.18508 1.43701 1.43687
7 2 0.047648 8.62209 0 0
8 2 0.0235846 10.0591 1.43701 1.43687
9 2 0.0461734 11.4961 0 0
10 2 0.0281341 12.9331 1.43701 1.43687
11 2 0.0461722 14.3702 0 0
12 2 0.0247753 15.8072 1.43701 1.43687
13 2 0.044129 17.2442 0 0
14 2 0.0216564 18.6812 1.43701 1.43687
15 1 0.0663847 20.1182 0 0
16 2 0.0200721 21.5552 1.43701 1.43687
17 2 0.043715 22.9922 0 0
18 2 0.0190171 24.4293 1.43701 1.43687
19 2 0.0434806 25.8663 0 0
20 2 0.023645 27.3033 1.43701 1.43687
21 2 0.0457127 0 2.87403 0
22 1 0.0435051 1.43701 4.31105 1.43687
23 2 0.0446749 2.87403 2.87403 0
24 2 0.0225943 4.31105 4.31105 1.43687
25 2 0.0472937 5.74806 2.87403 0
26 1 0.0414973 7.18508 4.31105 1.43687
27 2 0.0453993 8.62209 2.87403 0
28 2 0.0206399 10.0591 4.31105 1.43687
29 2 0.0474887 11.4961 2.87403 0
30 2 0.022059 12.9331 4.31105 1.43687
31 2 0.0461437 14.3702 2.87403 0
32 1 0.0428588 15.8072 4.31105 1.43687
33 2 0.0440894 17.2442 2.87403 0
34 1 0.0449353 18.6812 4.31105 1.43687
35 2 0.0452206 20.1182 2.87403 0
36 2 0.0238888 21.5552 4.31105 1.43687
37 2 0.0481038 22.9922 2.87403 0
38 2 0.0180473 24.4293 4.31105 1.43687
39 1 0.0638656 25.8663 2.87403 0
40 2 0.0177539 27.3033 4.31105 1.43687
41 2 0.0438657 0 5.74806 0
42 2 0.0234332 1.43701 7.18508 1.43687
43 1 0.0626261 2.87403 5.74806 0
44 2 0.0238178 4.31105 7.18508 1.43687
45 2 0.0447514 5.74806 5.74806 0
46 2 0.0258746 7.18508 7.18508 1.43687
47 2 0.0446834 8.62209 5.74806 0
48 2 0.0232675 10.0591 7.18508 1.43687
49 1 0.0655728 11.4961 5.74806 0
50 2 0.0246481 12.9331 7.18508 1.43687
51 2 0.042941 14.3702 5.74806 0
52 1 0.0411331 15.8072 7.18508 1.43687
53 2 0.0397401 17.2442 5.74806 0
54 2 0.0237946 18.6812 7.18508 1.43687
55 2 0.0453904 20.1182 5.74806 0
56 2 0.0212402 21.5552 7.18508 1.43687
57 1 0.0647268 22.9922 5.74806 0
58 2 0.0202971 24.4293 7.18508 1.43687
59 1 0.0640083 25.8663 5.74806 0
60 2 0.0242232 27.3033 7.18508 1.43687
61 2 0.0463721 0 8.62209 0
62 2 0.0252883 1.43701 10.0591 1.43687
63 2 0.0472243 2.87403 8.62209 0
64 2 0.0215654 4.31105 10.0591 1.43687
65 2 0.0476415 5.74806 8.62209 0
66 2 0.0210075 7.18508 10.0591 1.43687
67 2 0.0484648 8.62209 8.62209 0
68 2 0.0262829 10.0591 10.0591 1.43687
69 2 0.0466801 11.4961 8.62209 0
70 2 0.0235798 12.9331 10.0591 1.43687
71 2 0.0434919 14.3702 8.62209 0
72 1 0.0364736 15.8072 10.0591 1.43687
73 1 0.0615732 17.2442 8.62209 0
74 2 0.0216202 18.6812 10.0591 1.43687
75 2 0.0483637 20.1182 8.62209 0
76 2 0.0228256 21.5552 10.0591 1.43687
77 2 0.0442588 22.9922 8.62209 0
78 1 0.0394275 24.4293 10.0591 1.43687
79 2 0.043312 25.8663 8.62209 0
80 1 0.0419689 27.3033 10.0591 1.43687
81 2 0.046781 0 11.4961 0
82 2 0.025228 1.43701 12.9331 1.43687
83 2 0.048026 2.87403 11.4961 0
84 2 0.0157264 4.31105 12.9331 1.43687
85 1 0.0636249 5.74806 11.4961 0
86 2 0.0161286 7.18508 12.9331 1.43687
87 2 0.045907 8.62209 11.4961 0
88 2 0.0243214 10.0591 12.9331 1.43687
89 2 0.0493493 11.4961 11.4961 0
90 2 0.0205598 12.9331 12.9331 1.43687
91 2 0.0450168 14.3702 11.4961 0
92 1 0.0351897 15.8072 12.9331 1.43687
93 2 0.0415827 17.2442 11.4961 0
94 2 0.0184799 18.6812 12.9331 1.43687
95 2 0.048292 20.1182 11.4961 0
96 2 0.0239121 21.5552 12.9331 1.43687
97 2 0.0469852 22.9922 11.4961 0
98 2 0.0220325 24.4293 12.9331 1.43687
99 2 0.0437171 25.8663 11.4961 0
100 2 0.018898 27.3033 12.9331 1.43687
101 2 0.0470365 0 14.3702 0
102 2 0.0231978 1.43701 15.8072 1.43687
103 2 0.046207 2.87403 14.3702 0
104 2 0.0219445 4.31105 15.8072 1.43687
105 1 0.0641806 5.74806 14.3702 0
106 2 0.0201099 7.18508 15.8072 1.43687
107 1 0.0642408 8.62209 14.3702 0
108 2 0.0242602 10.0591 15.8072 1.43687
109 2 0.0475038 11.4961 14.3702 0
110 2 0.0243612 12.9331 15.8072 1.43687
111 2 0.0447303 14.3702 14.3702 0
112 2 0.0217072 15.8072 15.8072 1.43687
113 1 0.0629453 17.2442 14.3702 0
114 2 0.0221232 18.6812 15.8072 1.43687
115 1 0.0637933 20.1182 14.3702 0
116 2 0.0226108 21.5552 15.8072 1.43687
117 2 0.0475609 22.9922 14.3702 0
118 2 0.0233923 24.4293 15.8072 1.43687
119 2 0.0459067 25.8663 14.3702 0
120 1 0.0423938 27.3033 15.8072 1.43687
121 2 0.0453151 0 17.2442 0
122 2 0.0211078 1.43701 18.6812 1.43687
123 2 0.0486539 2.87403 17.2442 0
124 2 0.02334 4.31105 18.6812 1.43687
125 2 0.0450274 5.74806 17.2442 0
126 1 0.0442639 7.18508 18.6812 1.43687
127 2 0.0446019 8.62209 17.2442 0
128 2 0.0253826 10.0591 18.6812 1.43687
129 2 0.0462714 11.4961 17.2442 0
130 1 0.042962 12.9331 18.6812 1.43687
131 2 0.0472257 14.3702 17.2442 0
132 2 0.0228695 15.8072 18.6812 1.43687
133 2 0.0465277 17.2442 17.2442 0
134 2 0.0208012 18.6812 18.6812 1.43687
135 2 0.0456802 20.1182 17.2442 0
136 1 0.0390196 21.5552 18.6812 1.43687
137 2 0.0472619 22.9922 17.2442 0
138 2 0.0209501 24.4293 18.6812 1.43687
139 2 0.0451572 25.8663 17.2442 0
140 2 0.0214576 27.3033 18.6812 1.43687
141 1 0.0616805 0 20.1182 0
142 1 0.0359112 1.43701 21.5552 1.43687
143 1 0.058764 2.87403 20.1182 0
144 1 0.0383993 4.31105 21.5552 1.43687
145 2 0.0432383 5.74806 20.1182 0
146 2 0.0218557 7.18508 21.5552 1.43687
147 2 0.0453435 8.62209 20.1182 0
148 2 0.0225081 10.0591 21.5552 1.43687
149 2 0.0425033 11.4961 20.1182 0
150 1 0.0419831 12.9331 21.5552 1.43687
151 2 0.0423552 14.3702 20.1182 0
152 2 0.0248035 15.8072 21.5552 1.43687
153 1 0.0662826 17.2442 20.1182 0
154 2 0.0207402 18.6812 21.5552 1.43687
155 2 0.0443609 20.1182 20.1182 0
156 2 0.0214907 21.5552 21.5552 1.43687
157 2 0.0448443 22.9922 20.1182 0
158 2 0.0169285 24.4293 21.5552 1.43687
159 1 0.0641978 25.8663 20.1182 0
160 2 0.0163803 27.3033 21.5552 1.43687
161 2 0.0450202 0 22.9922 0
162 2 0.0176071 1.43701 24.4293 1.43687
163 1 0.0597533 2.87403 22.9922 0
164 2 0.0192776 4.31105 24.4293 1.43687
165 2 0.0425843 5.74806 22.9922 0
166 1 0.0402113 7.18508 24.4293 1.43687
167 1 0.0630238 8.62209 22.9922 0
168 2 0.0163658 10.0591 24.4293 1.43687
169 1 0.06256 11.4961 22.9922 0
170 2 0.0213059 12.9331 24.4293 1.43687
171 2 0.0457464 14.3702 22.9922 0
172 2 0.022893 15.8072 24.4293 1.43687
173 2 0.0432893 17.2442 22.9922 0
174 1 0.0423988 18.6812 24.4293 1.43687
175 2 0.0472504 20.1182 22.9922 0
176 2 0.0240132 21.5552 24.4293 1.43687
177 2 0.0471597 22.9922 22.9922 0
178 2 0.0190831 24.4293 24.4293 1.43687
179 1 0.0645992 25.8663 22.9922 0
180 2 0.0203339 27.3033 24.4293 1.43687
181 2 0.0473965 0 25.8663 0
182 2 0.0187288 1.43701 27.3033 1.43687
183 2 0.0484196 2.87403 25.8663 0
184 2 0.0201161 4.31105 27.3033 1.43687
185 2 0.048382 5.74806 25.8663 0
186 2 0.0202585 7.18508 27.3033 1.43687
187 2 0.0422313 8.62209 25.8663 0
188 1 0.0412918 10.0591 27.3033 1.43687
189 2 0.0455647 11.4961 25.8663 0
190 2 0.0213418 12.9331 27.3033 1.43687
191 2 0.0460764 14.3702 25.8663 0
192 1 0.0429425 15.8072 27.3033 1.43687
193 1 0.0608245 17.2442 25.8663 0
194 2 0.0173355 18.6812 27.3033 1.43687
195 2 0.0428868 20.1182 25.8663 0
196 2 0.0163261 21.5552 27.3033 1.43687
197 1 0.0641223 22.9922 25.8663 0
198 1 0.0411633 24.4293 27.3033 1.43687
199 2 0.0419598 25.8663 25.8663 0
200 1 0.0425242 27.3033 27.3033 1.43687
201 2 0.0239196 0 0 2.87417
202 1 0.0451505 1.43701 1.43701 4.31104
203 1 0.0437765 2.87403 0 2.87417
204 2 0.0241747 4.31105 1.43701 4.31104
205 1 0.05213 5.74806 0 2.87417
206 2 0.0272333 7.18508 1.43701 4.31104
207 2 0.0280249 8.62209 0 2.87417
208 2 0.028056 10.0591 1.43701 4.31104
209 2 0.0277158 11.4961 0 2.87417
210 2 0.0278103 12.9331 1.43701 4.31104
211 2 0.0273209 14.3702 0 2.87417
212 2 0.032488 15.8072 1.43701 4.31104
213 2 0.0296471 17.2442 0 2.87417
214 2 0.0294518 18.6812 1.43701 4.31104
215 1 0.0477311 20.1182 0 2.87417
216 1 0.0447401 21.5552 1.43701 4.31104
217 1 0.0446566 22.9922 0 2.87417
218 1 0.047362 24.4293 1.43701 4.31104
219 2 0.0228579 25.8663 0 2.87417
220 2 0.025003 27.3033 1.43701 4.31104
221 2 0.0253683 0 2.87403 2.87417
222 2 0.025162 1.43701 4.31105 4.31104
223 2 0.028949 2.87403 2.87403 2.87417
224 2 0.0310641 4.31105 4.31105 4.31104
225 2 0.0285494 5.74806 2.87403 2.87417
226 2 0.0285499 7.18508 4.31105 4.31104
227 1 0.0487264 8.62209 2.87403 2.87417
228 2 0.0232229 10.0591 4.31105 4.31104
229 2 0.0291092 11.4961 2.87403 2.87417
230 1 0.0442691 12.9331 4.31105 4.31104
231 2 0.0286053 14.3702 2.87403 2.87417
232 2 0.0273187 15.8072 4.31105 4.31104
233 2 0.0279628 17.2442 2.87403 2.87417
234 2 0.0295507 18.6812 4.31105 4.31104
235 2 0.0253282 20.1182 2.87403 2.87417
236 1 0.0480172 21.5552 4.31105 4.31104
237 2 0.0253897 22.9922 2.87403 2.87417
238 2 0.0263753 24.4293 4.31105 4.31104
239 1 0.0478826 25.8663 2.87403 2.87417
240 1 0.0443484 27.3033 4.31105 4.31104
241 2 0.0279971 0 5.74806 2.87417
242 2 0.0296349 1.43701 7.18508 4.31104
243 2 0.0254836 2.87403 5.74806 2.87417
244 1 0.0453133 4.31105 7.18508 4.31104
245 2 0.0285907 5.74806 5.74806 2.87417
246 2 0.0290018 7.18508 7.18508 4.31104
247 2 0.0295667 8.62209 5.74806 2.87417
248 2 0.0303103 10.0591 7.18508 4.31104
249 2 0.0300001 11.4961 5.74806 2.87417
250 2 0.0259528 12.9331 7.18508 4.31104
251 2 0.0257415 14.3702 5.74806 2.87417
252 2 0.0319764 15.8072 7.18508 4.31104
253 2 0.0260769 17.2442 5.74806 2.87417
254 2 0.0295262 18.6812 7.18508 4.31104
255 2 0.0245138 20.1182 5.74806 2.87417
256 1 0.0452845 21.5552 7.18508 4.31104
257 2 0.0287086 22.9922 5.74806 2.87417
258 2 0.0247607 24.4293 7.18508 4.31104
259 2 0.0277282 25.8663 5.74806 2.87417
260 1 0.046344 27.3033 7.18508 4.31104
261 2 0.0289365 0 8.62209 2.87417
262 2 0.0325701 1.43701 10.0591 4.31104
263 2 0.0315451 2.87403 8.62209 2.87417
264 2 0.0263772 4.31105 10.0591 4.31104
265 2 0.0284237 5.74806 8.62209 2.87417
266 2 0.0258491 7.18508 10.0591 4.31104
267 2 0.0329566 8.62209 8.62209 2.87417
268 2 0.0307794 10.0591 10.0591 4.31104
269 2 0.0305492 11.4961 8.62209 2.87417
270 1 0.0476874 12.9331 10.0591 4.31104
271 2 0.0260233 14.3702 8.62209 2.87417
272 2 0.0244107 15.8072 10.0591 4.31104
273 2 0.0271214 17.2442 8.62209 2.87417
274 2 0.0277123 18.6812 10.0591 4.31104
275 2 0.030603 20.1182 8.62209 2.87417
276 2 0.0283954 21.5552 10.0591 4.31104
277 1 0.0474162 22.9922 8.62209 2.87417
278 2 0.0257588 24.4293 10.0591 4.31104
279 2 0.0237689 25.8663 8.62209 2.87417
280 2 0.0248884 27.3033 10.0591 4.31104
281 2 0.0271831 0 11.4961 2.87417
282 2 0.0289214 1.43701 12.9331 4.31104
283 2 0.0303305 2.87403 11.4961 2.87417
284 2 0.0274194 4.31105 12.9331 4.31104
285 1 0.0512489 5.74806 11.4961 2.87417
286 2 0.0284749 7.18508 12.9331 4.31104
287 2 0.0322665 8.62209 11.4961 2.87417
288 2 0.0315398 10.0591 12.9331 4.31104
289 2 0.0261512 11.4961 11.4961 2.87417
290 1 0.0459136 12.9331 12.9331 4.31104
291 1 0.0403657 14.3702 11.4961 2.87417
292 2 0.0209707 15.8072 12.9331 4.31104
293 1 0.0463294 17.2442 11.4961 2.87417
294 2 0.0274771 18.6812 12.9331 4.31104
295 2 0.032741 20.1182 11.4961 2.87417
296 2 0.0292276 21.5552 12.9331 4.31104
297 2 0.0288561 22.9922 11.4961 2.87417
298 2 0.0242558 24.4293 12.9331 4.31104
299 1 0.043289 25.8663 11.4961 2.87417
300 1 0.0469203 27.3033 12.9331 4.31104
301 2 0.0263507 0 14.3702 2.87417
302 2 0.0260794 1.43701 15.8072 4.31104
303 1 0.0514262 2.87403 14.3702 2.87417
304 2 0.0267893 4.31105 15.8072 4.31104
305 2 0.0306669 5.74806 14.3702 2.87417
306 2 0.0319579 7.18508 15.8072 4.31104
307 2 0.0316258 8.62209 14.3702 2.87417
308 2 0.0332437 10.0591 15.8072 4.31104
309 2 0.0292828 11.4961 14.3702 2.87417
310 2 0.0275381 12.9331 15.8072 4.31104
311 1 0.0466941 14.3702 14.3702 2.87417
312 2 0.0298187 15.8072 15.8072 4.31104
313 2 0.0287219 17.2442 14.3702 2.87417
314 2 0.0326769 18.6812 15.8072 4.31104
315 2 0.0319658 20.1182 14.3702 2.87417
316 2 0.0289297 21.5552 15.8072 4.31104
317 2 0.031616 22.9922 14.3702 2.87417
318 2 0.0281969 24.4293 15.8072 4.31104
319 1 0.0449951 25.8663 14.3702 2.87417
320 2 0.0252499 27.3033 15.8072 4.31104
321 2 0.0290036 0 17.2442 2.87417
322 1 0.04383 1.43701 18.6812 4.31104
323 2 0.0297629 2.87403 17.2442 2.87417
324 2 0.0285933 4.31105 18.6812 4.31104
325 2 0.0313902 5.74806 17.2442 2.87417
326 2 0.0272793 7.18508 18.6812 4.31104
327 2 0.0298931 8.62209 17.2442 2.87417
328 2 0.0299574 10.0591 18.6812 4.31104
329 2 0.0273978 11.4961 17.2442 2.87417
330 1 0.0492772 12.9331 18.6812 4.31104
331 2 0.0243213 14.3702 17.2442 2.87417
332 1 0.049658 15.8072 18.6812 4.31104
333 2 0.0316059 17.2442 17.2442 2.87417
334 2 0.0277804 18.6812 18.6812 4.31104
335 2 0.0296252 20.1182 17.2442 2.87417
336 2 0.0253259 21.5552 18.6812 4.31104
337 2 0.0298478 22.9922 17.2442 2.87417
338 2 0.0304175 24.4293 18.6812 4.31104
339 2 0.0303291 25.8663 17.2442 2.87417
340 2 0.0284185 27.3033 18.6812 4.31104
341 2 0.0306609 0 20.1182 2.87417
342 2 0.026775 1.43701 21.5552 4.31104
343 2 0.0241306 2.87403 20.1182 2.87417
344 2 0.0284835 4.31105 21.5552 4.31104
345 2 0.0294261 5.74806 20.1182 2.87417
346 2 0.029873 7.18508 21.5552 4.31104
347 2 0.0294968 8.62209 20.1182 2.87417
348 2 0.0311888 10.0591 21.5552 4.31104
349 2 0.0258032 11.4961 20.1182 2.87417
350 2 0.0297267 12.9331 21.5552 4.31104
351 2 0.0226598 14.3702 20.1182 2.87417
352 2 0.0313542 15.8072 21.5552 4.31104
353 2 0.0281652 17.2442 20.1182 2.87417
354 2 0.0276255 18.6812 21.5552 4.31104
355 1 0.0480142 20.1182 20.1182 2.87417
356 2 0.0228423 21.5552 21.5552 4.31104
357 1 0.0482111 22.9922 20.1182 2.87417
358 2 0.0249245 24.4293 21.5552 4.31104
359 2 0.0308334 25.8663 20.1182 2.87417
360 2 0.0301099 27.3033 21.5552 4.31104
361 2 0.0255169 0 22.9922 2.87417
362 1 0.042831 1.43701 24.4293 4.31104
363 1 0.0434512 2.87403 22.9922 2.87417
364 2 0.0271063 4.31105 24.4293 4.31104
365 2 0.0264835 5.74806 22.9922 2.87417
366 1 0.0444975 7.18508 24.4293 4.31104
367 2 0.0280194 8.62209 22.9922 2.87417
368 2 0.0248596 10.0591 24.4293 4.31104
369 2 0.0273493 11.4961 22.9922 2.87417
370 1 0.0472411 12.9331 24.4293 4.31104
371 2 0.028418 14.3702 22.9922 2.87417
372 2 0.0322266 15.8072 24.4293 4.31104
373 2 0.0311105 17.2442 22.9922 2.87417
374 2 0.0264992 18.6812 24.4293 4.31104
375 2 0.0296783 20.1182 22.9922 2.87417
376 2 0.022889 21.5552 24.4293 4.31104
377 2 0.0328128 22.9922 22.9922 2.87417
378 2 0.0240778 24.4293 24.4293 4.31104
379 1 0.0501755 25.8663 22.9922 2.87417
380 1 0.0425187 27.3033 24.4293 4.31104
381 1 0.0402303 0 25.8663 2.87417
382 1 0.0401632 1.43701 27.3033 4.31104
383 1 0.045938 2.87403 25.8663 2.87417
384 2 0.0227339 4.31105 27.3033 4.31104
385 2 0.0271682 5.74806 25.8663 2.87417
386 2 0.0244979 7.18508 27.3033 4.31104
387 1 0.0429138 8.62209 25.8663 2.87417
388 2 0.0238562 10.0591 27.3033 4.31104
389 1 0.0439734 11.4961 25.8663 2.87417
390 1 0.0481679 12.9331 27.3033 4.31104
391 2 0.0246008 14.3702 25.8663 2.87417
392 2 0.0300106 15.8072 27.3033 4.31104
393 2 0.0272932 17.2442 25.8663 2.87417
394 2 0.0287964 18.6812 27.3033 4.31104
395 2 0.0318348 20.1182 25.8663 2.87417
396 2 0.022287 21.5552 27.3033 4.31104
397 2 0.0313277 22.9922 25.8663 2.87417
398 2 0.0249994 24.4293 27.3033 4.31104
399 2 0.0221903 25.8663 25.8663 2.87417
400 1 0.0465528 27.3033 27.3033 4.31104
401 2 0.0230144 0.0307146 0.0428136 5.77502
402 2 0.0235175 1.45726 1.48344 7.21479
403 1 0.0411059 2.85478 0.0115933 5.75486
404 1 0.0414515 4.30756 1.43098 7.15854
405 2 0.0264005 5.74839 28.7316 5.69757
406 2 0.026505 7.20906 1.40978 7.079
407 2 0.0333568 8.60625 28.684 5.70568
408 2 0.0273364 9.97309 1.43898 7.19683
409 2 0.0289544 11.478 0.0883114 5.78998
410 2 0.0271198 12.9862 1.42785 7.25149
411 2 0.0305293 14.401 0.0619343 5.73634
412 2 0.0304672 15.8289 1.49494 7.23332
413 2 0.031296 17.2422 0.00649345 5.72431
414 2 0.0300291 18.652 1.39658 7.17628
415 2 0.0259121 20.0968 28.6953 5.71295
416 2 0.0288775 21.5575 1.33744 7.11976
417 2 0.0243153 23.0034 28.6795 5.72406
418 2 0.0315474 24.4739 1.47679 7.1627
419 2 0.0267589 25.8535 28.721 5.77321
420 1 0.0487391 27.2919 1.42407 7.25025
421 1 0.0453627 28.7308 2.88286 5.77698
422 2 0.0292261 1.46177 4.32858 7.25927
423 2 0.0257391 2.83505 2.91575 5.76304
424 2 0.0259211 4.29378 4.2348 7.20044
425 2 0.0306101 5.76938 2.89901 5.73727
426 2 0.0298228 7.23478 4.32364 7.14757
427 2 0.0292506 8.65805 2.88357 5.68848
428 2 0.0273775 9.99748 4.28742 7.22451
429 1 0.047494 11.4927 2.87561 5.78138
430 2 0.0210897 12.9797 4.22562 7.23278
431 2 0.0252054 14.3549 2.85486 5.74094
432 1 0.0473347 15.8263 4.29086 7.15906
433 2 0.0299028 17.2559 2.85581 5.70492
434 2 0.0256216 18.5624 4.36252 7.18549
435 2 0.0260737 20.1001 2.90853 5.83315
436 2 0.0264804 21.6595 4.30945 7.15319
437 2 0.0242502 23.0137 2.85854 5.77046
438 1 0.0489543 24.423 4.36832 7.22339
439 2 0.0196265 25.8788 2.893 5.75329
440 2 0.0256222 27.2784 4.29331 7.22405
441 2 0.0258938 0.0323396 5.71417 5.80854
442 2 0.0269703 1.44811 7.22948 7.20494
443 1 0.048357 2.87671 5.74653 5.77387
444 2 0.0267618 4.29887 7.15205 7.21704
445 2 0.0274075 5.75541 5.76882 5.79551
446 2 0.0282849 7.22524 7.19435 7.27741
447 2 0.0316889 8.66302 5.76332 5.74661
448 2 0.030665 10.0312 7.15585 7.20103
449 1 0.0454874 11.5238 5.71517 5.8105
450 2 0.025419 12.9272 7.24368 7.25094
451 1 0.0439723 14.3357 5.7511 5.8035
452 2 0.0234088 15.9054 7.13422 7.1731
453 2 0.0261395 17.242 5.77703 5.68052
454 1 0.0468253 18.6992 7.19619 7.21445
455 1 0.043615 20.1179 5.72913 5.76944
456 2 0.0259968 21.6001 7.20812 7.13133
457 2 0.0220046 23.0204 5.7658 5.71582
458 1 0.0428415 24.4323 7.16028 7.21074
459 1 0.0405941 25.8863 5.74541 5.75562
460 2 0.0245441 27.3296 7.15671 7.20666
461 2 0.0263268 28.7198 8.63397 5.80013
462 1 0.047906 1.46944 10.098 7.21168
463 2 0.024496 2.89166 8.61719 5.77454
464 2 0.0285593 4.25701 10.1085 7.19656
465 1 0.046499 5.75069 8.62139 5.8014
466 1 0.0458878 7.19607 10.1057 7.22174
467 2 0.0279816 8.57785 8.60265 5.75059
468 2 0.0324518 9.99572 10.0695 7.15924
469 2 0.0282768 11.4681 8.57555 5.75957
470 2 0.0308711 12.9241 10.0727 7.15406
471 2 0.0312524 14.3912 8.56593 5.75579
472 2 0.0286173 15.7847 10.1005 7.18478
473 2 0.0290251 17.2492 8.6832 5.77811
474 2 0.0259606 18.7343 10.0268 7.22128
475 2 0.0269087 20.1161 8.63085 5.73432
476 2 0.0316712 21.5673 10.0787 7.12375
477 2 0.0249953 23.038 8.66538 5.74559
478 2 0.0266453 24.442 10.0627 7.17673
479 1 0.0466327 25.8904 8.60641 5.78459
480 2 0.0261208 27.3425 10.1346 7.19824
481 2 0.0281351 0.00238922 11.4823 5.72572
482 2 0.027268 1.46432 12.8841 7.13258
483 2 0.0302037 2.90479 11.5083 5.70419
484 2 0.029196 4.36229 12.9859 7.12079
485 2 0.0248724 5.74145 11.4593 5.69705
486 1 0.0493189 7.20178 12.9325 7.15897
487 2 0.0265791 8.61995 11.48 5.68489
488 2 0.0298288 9.97513 12.9588 7.16077
489 2 0.0275045 11.4781 11.4957 5.78534
490 2 0.0282957 13.0203 12.9715 7.09337
491 2 0.0235807 14.4241 11.4677 5.70495
492 1 0.0456443 15.8214 12.9685 7.14868
493 1 0.0475765 17.2706 11.488 5.76785
494 2 0.0265434 18.6993 12.9393 7.19306
495 2 0.0309489 20.0716 11.4952 5.72203
496 2 0.0258076 21.5066 12.8846 7.23756
497 2 0.0324803 22.9902 11.5513 5.74443
498 2 0.027507 24.4818 12.8854 7.21707
499 2 0.0288327 25.8513 11.4325 5.69444
500 2 0.0289311 27.2745 12.9893 7.08034
501 2 0.0271801 0.0451527 14.4004 5.76294
502 2 0.0214895 1.466 15.8388 7.21151
503 2 0.027896 2.86674 14.4051 5.75031
504 1 0.04585 4.3587 15.8038 7.21836
505 2 0.0253599 5.74025 14.3613 5.66903
506 1 0.0451792 7.14876 15.7854 7.16204
507 2 0.0264889 8.61992 14.3893 5.69535
508 2 0.0268487 10.0276 15.8011 7.15381
509 2 0.0262402 11.4848 14.3616 5.78256
510 1 0.0477014 12.9592 15.7999 7.22805
511 2 0.0230608 14.3924 14.4034 5.66764
512 1 0.0468222 15.8094 15.7554 7.17993
513 2 0.0256223 17.31 14.3537 5.71387
514 2 0.0280716 18.6652 15.8249 7.17113
515 2 0.0309224 20.164 14.3677 5.75766
516 2 0.0266256 21.4889 15.8658 7.21081
517 1 0.048609 22.9858 14.3716 5.84684
518 2 0.0271354 24.5226 15.854 7.19987
519 2 0.0262303 25.8008 14.3784 5.72252
520 1 0.0453138 27.2982 15.8204 7.16791
521 1 0.0410635 0.00443511 17.2521 5.74564
522 1 0.0399542 1.36884 18.7152 7.19355
523 1 0.0428253 2.88045 17.2751 5.78823
524 2 0.0239575 4.40468 18.6268 7.22106
525 2 0.0253224 5.72776 17.242 5.67469
526 1 0.04541 7.184 18.6517 7.16144
527 2 0.0249771 8.62579 17.2502 5.72053
528 2 0.0244431 10.0382 18.6854 7.17954
529 2 0.029305 11.4756 17.2132 5.7406
530 2 0.0286714 12.907 18.5967 7.16089
531 2 0.022351 14.3765 17.2064 5.7197
532 2 0.0310985 15.8261 18.6161 7.1039
533 2 0.0259088 17.2746 17.2218 5.73954
534 2 0.0322857 18.7159 18.6719 7.17028
535 2 0.0318873 20.1143 17.2597 5.71345
536 2 0.029442 21.5676 18.6703 7.13598
537 2 0.0314732 23.0129 17.2061 5.75355
538 2 0.028114 24.494 18.6795 7.15556
539 2 0.0266388 25.8999 17.2643 5.67372
540 1 0.0458942 27.319 18.6998 7.20562
541 2 0.0233178 28.7235 20.1489 5.71975
542 2 0.0272008 1.40339 21.5544 7.19466
543 1 0.0445635 2.90636 20.0985 5.8171
544 2 0.0269076 4.35446 21.5834 7.23617
545 2 0.0286679 5.73056 20.137 5.74383
546 2 0.0287344 7.19962 21.514 7.24067
547 1 0.0451791 8.61856 20.1337 5.7567
548 1 0.0455894 10.0606 21.5479 7.23617
549 2 0.0247403 11.4814 20.0986 5.77084
550 2 0.0297326 12.8701 21.5893 7.15403
551 2 0.0275433 14.3661 20.1354 5.78407
552 2 0.0319496 15.8286 21.5609 7.23878
553 2 0.0288513 17.2623 20.1431 5.76594
554 2 0.028632 18.7006 21.514 7.26122
555 2 0.0305577 20.1222 20.1713 5.72313
556 2 0.0232958 21.5478 21.5462 7.23058
557 2 0.029665 22.9985 20.153 5.78138
558 2 0.0282366 24.4701 21.5449 7.20751
559 2 0.0303074 25.8673 20.1275 5.71809
560 2 0.0316928 27.2585 21.4931 7.21305
561 2 0.0293355 28.7239 22.9379 5.7354
562 2 0.0321784 1.44086 24.4008 7.10002
563 2 0.0279467 2.89851 22.926 5.73739
564 2 0.0333338 4.28596 24.4661 7.15146
565 2 0.0310991 5.74463 22.9813 5.75787
566 2 0.0282315 7.17741 24.3806 7.1921
567 2 0.0248156 8.60109 22.9569 5.75347
568 2 0.0278016 10.0835 24.326 7.2115
569 2 0.0284139 11.4605 22.9583 5.70451
570 2 0.0275557 12.9032 24.4282 7.09007
571 2 0.0295348 14.4124 22.9497 5.72835
572 2 0.0267289 15.8148 24.3881 7.1615
573 2 0.0313145 17.3166 22.9711 5.74691
574 2 0.0245436 18.6941 24.4392 7.22515
575 1 0.0466716 20.1319 23.003 5.78458
576 1 0.0396781 21.5602 24.4577 7.25833
577 1 0.0480933 22.9631 22.9899 5.78706
578 2 0.0216725 24.4056 24.3637 7.26086
579 2 0.0270179 25.8089 23.0054 5.73639
580 2 0.0258232 27.331 24.3332 7.13177
581 2 0.0224804 28.7044 25.8666 5.77742
582 2 0.0287817 1.46689 27.2464 7.15329
583 2 0.0244446 2.91183 25.8679 5.71952
584 1 0.0426812 4.30722 27.3495 7.20001
585 2 0.0286491 5.76536 25.8825 5.74542
586 2 0.0267699 7.1681 27.298 7.20472
587 1 0.048085 8.60881 25.8264 5.76968
588 2 0.0257825 10.0351 27.3355 7.15937
589 2 0.0254302 11.4084 25.863 5.77843
590 2 0.0250157 12.9238 27.3199 7.07143
591 2 0.026873 14.4248 25.8554 5.77856
592 2 0.0272882 15.8291 27.3541 7.14121
593 2 0.0308896 17.3064 25.8685 5.80535
594 2 0.0267046 18.7139 27.3554 7.2356
595 1 0.0442763 20.1287 25.8571 5.78069
596 1 0.0461448 21.5331 27.2881 7.25039
597 1 0.0445774 23.005 25.8489 5.79092
598 2 0.0253173 24.3658 27.3633 7.23369
599 1 0.0458273 25.8458 25.8736 5.83175
600 2 0.0264641 27.343 27.4076 7.16968
601 2 0.0283629 0.110481 28.7027 8.60681
602 2 0.0252117 1.33285 1.46218 10.0931
603 1 0.0422409 2.86306 0.00319258 8.66693
604 2 0.0191264 4.31963 1.45752 10.07
605 1 0.0403061 5.76664 0.0351205 8.62442
606 2 0.0283164 7.25133 1.40392 10.07
607 2 0.0286632 8.61529 0.00500823 8.63027
608 2 0.0276799 10.0854 1.47085 10.1179
609 1 0.0466025 11.4743 28.7032 8.63099
610 1 0.0481024 12.9325 1.43247 10.0356
611 2 0.0284146 14.3774 28.6592 8.62142
612 2 0.0304721 15.7615 1.42561 10.1203
613 2 0.0320489 17.1792 28.7177 8.65092
614 2 0.0273158 18.6544 1.41579 10.0765
615 2 0.0278052 20.1115 0.0930185 8.68545
616 2 0.0250974 21.5639 1.43301 10.0534
617 2 0.0310829 23.0206 0.0723805 8.65875
618 2 0.0258051 24.4667 1.47972 10.0485
619 2 0.0251971 25.8382 28.6804 8.66464
620 1 0.0474396 27.3302 1.41812 10.0277
621 2 0.0270861 0.0175625 2.91446 8.57874
622 2 0.0254734 1.43935 4.3361 10.0123
623 2 0.0297664 2.9057 2.81591 8.70238
624 2 0.0258267 4.32055 4.3195 10.0309
625 1 0.0474363 5.81158 2.82856 8.59439
626 2 0.025528 7.17329 4.38553 10.0444
627 2 0.0314831 8.55325 2.85499 8.64252
628 2 0.0306689 10.0718 4.29215 10.0765
629 2 0.0280824 11.4321 2.79698 8.55708
630 2 0.0272442 12.8762 4.27691 10.0051
631 2 0.0274153 14.4159 2.89428 8.67532
632 2 0.0268054 15.8663 4.30954 10.0339
633 2 0.0282347 17.3025 2.84744 8.64409
634 2 0.0301279 18.6834 4.39907 10.0758
635 1 0.0506557 20.1097 2.89503 8.58074
636 2 0.0286384 21.5488 4.29744 10.1171
637 2 0.0292617 22.9291 2.86599 8.59962
638 2 0.0326003 24.4152 4.33472 10.0053
639 2 0.0247662 25.8286 2.88455 8.6299
640 2 0.0291156 27.3255 4.25327 10.0238
641 2 0.031474 28.733 5.81577 8.68124
642 2 0.0247533 1.49178 7.19008 10.0555
643 2 0.0309286 2.89356 5.75112 8.64205
644 2 0.0290065 4.36525 7.13943 10.0829
645 2 0.029949 5.75137 5.67394 8.57869
646 1 0.0451158 7.14769 7.20019 10.0542
647 2 0.0287871 8.66437 5.72837 8.69635
648 2 0.0268229 10.1466 7.15382 10.0341
649 2 0.0294733 11.5545 5.71486 8.5726
650 1 0.0438726 12.955 7.26566 10.0492
651 1 0.0425582 14.3815 5.7488 8.62966
652 1 0.0407638 15.8094 7.17405 10.0727
653 2 0.0222125 17.2271 5.75048 8.64256
654 1 0.0435407 18.7033 7.19773 10.0387
655 2 0.0265379 20.159 5.65785 8.55549
656 2 0.0304895 21.4579 7.17664 10.058
657 2 0.026719 22.9315 5.81131 8.67934
658 2 0.0284328 24.4818 7.16907 10.0707
659 2 0.0273816 25.9267 5.76482 8.65361
660 2 0.0270088 27.2915 7.22969 10.0685
661 1 0.0462342 0.000853413 8.66106 8.63298
662 2 0.024662 1.4946 10.0809 10.0294
663 2 0.0297271 2.89668 8.6145 8.65164
664 2 0.03198 4.32235 10.0592 10.0962
665 2 0.0243634 5.68631 8.62357 8.56872
666 1 0.0454098 7.18181 10.027 10.0228
667 2 0.0244096 8.68895 8.62249 8.66288
668 2 0.0287047 10.1059 10.0836 10.0737
669 2 0.0281243 11.4609 8.67872 8.56721
670 1 0.0491953 12.9274 10.0394 10.0591
671 2 0.0250815 14.4431 8.62985 8.56266
672 2 0.0257033 15.7493 10.082 10.067
673 1 0.0416219 17.2355 8.65498 8.64449
674 1 0.0434643 18.7163 10.034 10.0719
675 2 0.0236299 20.2274 8.61739 8.60632
676 2 0.0268112 21.525 10.1093 10.0367
677 1 0.0491169 23.0235 8.64174 8.65254
678 2 0.0279054 24.5257 10.1207 10.1089
679 2 0.0245934 25.8741 8.65789 8.58351
680 1 0.0462263 27.3065 10.0925 10.0564
681 2 0.0246119 0.00116747 11.5745 8.62295
682 2 0.0232356 1.43516 12.9009 10.0725
683 2 0.029811 2.91779 11.5844 8.63429
684 2 0.0270088 4.31316 12.9281 10.0945
685 2 0.0255939 5.6907 11.5044 8.6086
686 2 0.0316815 7.20378 12.8428 10.0041
687 2 0.0244672 8.68775 11.5146 8.64758
688 2 0.0313481 10.0792 12.9021 10.1006
689 2 0.0284683 11.5222 11.5736 8.5737
690 2 0.0278544 12.9365 12.8523 10.0764
691 2 0.0288739 14.3416 11.499 8.58123
692 2 0.0309303 15.8144 12.8432 10.0305
693 2 0.0246543 17.2541 11.474 8.59168
694 2 0.0270118 18.7236 12.8769 10.0245
695 2 0.0285568 20.1106 11.475 8.62021
696 1 0.0425395 21.5732 12.933 10.0446
697 2 0.0260056 22.9995 11.4289 8.60041
698 1 0.0440785 24.4094 12.9021 10.0571
699 2 0.0303471 25.8833 11.4941 8.57239
700 2 0.0237572 27.2249 12.9079 10.0343
701 1 0.0495901 0.0141504 14.3521 8.60401
702 2 0.0251554 1.44964 15.8356 10.0878
703 1 0.0441316 2.86395 14.3584 8.62665
704 1 0.0458164 4.29671 15.8162 10.0712
705 2 0.0224627 5.74557 14.3117 8.65699
706 2 0.0283864 7.10226 15.7462 10.0832
707 2 0.0256406 8.67354 14.4313 8.65507
708 2 0.0272512 10.1136 15.8153 10.1528
709 1 0.0458012 11.5014 14.3451 8.61885
710 1 0.0472143 12.9283 15.8551 10.0136
711 2 0.0203691 14.3666 14.3127 8.68102
712 2 0.0272477 15.7459 15.8292 10.077
713 1 0.045526 17.2383 14.365 8.63843
714 2 0.0266206 18.6588 15.8058 10.0856
715 2 0.0298535 20.0789 14.3955 8.61423
716 2 0.0252908 21.5379 15.7829 10.0328
717 1 0.0439854 23.0123 14.3824 8.57812
718 2 0.0250854 24.4276 15.8309 10.0562
719 2 0.0252319 25.8767 14.3768 8.65425
720 2 0.027427 27.2881 15.7999 10.059
721 2 0.0244901 0.0290634 17.1929 8.62878
722 2 0.0300564 1.40794 18.6859 10.0516
723 2 0.0249084 2.88366 17.293 8.61797
724 2 0.0289355 4.30268 18.6822 10.098
725 2 0.0223709 5.80169 17.2441 8.69166
726 2 0.03052 7.15027 18.7384 10.02
727 1 0.0477329 8.60301 17.2127 8.6524
728 2 0.0273679 10.1056 18.6871 10.1443
729 2 0.0224655 11.3794 17.2464 8.61013
730 1 0.048165 12.9344 18.6593 10.0328
731 2 0.0234498 14.4481 17.2887 8.60129
732 2 0.0315677 15.7487 18.7873 10.0601
733 2 0.0292761 17.2357 17.2269 8.6541
734 2 0.0283717 18.6825 18.7729 10.0557
735 2 0.0315659 20.0593 17.2591 8.68464
736 2 0.0242679 21.553 18.6428 10.0427
737 2 0.0312758 22.9808 17.2415 8.57949
738 2 0.0253926 24.4055 18.5974 10.08
739 2 0.029207 25.879 17.2582 8.63994
740 2 0.0279523 27.3186 18.6663 9.99254
741 2 0.0270143 0.0291246 20.182 8.68478
742 2 0.0284678 1.48232 21.6036 10.1242
743 1 0.0445946 2.88261 20.1108 8.60597
744 1 0.0450412 4.28186 21.5627 10.073
745 2 0.0278007 5.71884 20.1092 8.62091
746 2 0.0282801 7.14003 21.5676 9.99109
747 2 0.023794 8.67834 20.0364 8.66165
748 2 0.0292956 10.0445 21.5873 10.0877
749 1 0.0459358 11.5128 20.1192 8.63888
750 2 0.0281167 13.0575 21.5185 10.0559
751 2 0.0260777 14.339 20.1317 8.54376
752 1 0.0475926 15.8367 21.5881 10.0501
753 2 0.0265036 17.1928 20.0454 8.57702
754 1 0.0493018 18.6301 21.5059 10.0678
755 2 0.0284373 20.1667 20.0752 8.59955
756 2 0.0251597 21.4349 21.5445 10.0595
757 1 0.0503289 23.0162 20.0979 8.65159
758 2 0.0212819 24.4768 21.6189 10.0525
759 2 0.0272208 25.8321 20.1103 8.69048
760 2 0.0296614 27.3115 21.5975 10.0655
761 2 0.031425 0.0152909 22.9986 8.6294
762 2 0.0324971 1.41278 24.4052 10.0637
763 2 0.0284051 2.84631 22.9955 8.5831
764 2 0.0282883 4.28155 24.4404 10.0083
765 2 0.0260503 5.72501 23.0239 8.63151
766 1 0.0487611 7.20717 24.4761 10.0276
767 2 0.0285137 8.61817 22.9811 8.64707
768 2 0.0290901 10.0315 24.4258 10.1092
769 2 0.0281459 11.5313 23.0126 8.69188
770 2 0.0271403 12.9685 24.4142 10.0801
771 2 0.0270727 14.3258 23.0243 8.57267