ITEM: TIMESTEP
0
ITEM: NUMBER OF ATOMS
3396
ITEM: BOX BOUNDS pp pp ff
0.0000000000000000e+00 2.8740300000000001e+01
0.0000000000000000e+00 2.8740300000000001e+01
0.0000000000000000e+00 8.6000000000000000e+01
ITEM: ATOMS id type q x y z
1 2 0.0286678 0 0 0
2 2 0.0139189 1.43701 1.43701 1.43687
3 2 0.0301668 2.87403 0 0
4 2 0.0125615 4.31105 1.43701 1.43687
5 2 0.0295987 5.74806 0 0
6 2 0.00979985 7.18508 1.43701 1.43687
7 2 0.029019 8.62209 0 0
8 2 0.0136948 10.0591 1.43701 1.43687
9 2 0.0274818 11.4961 0 0
10 2 0.0184359 12.9331 1.43701 1.43687
11 2 0.0274775 14.3702 0 0
12 2 0.0148385 15.8072 1.43701 1.43687
13 2 0.0253697 17.2442 0 0
14 2 0.0117108 18.6812 1.43701 1.43687
15 1 0.0488457 20.1182 0 0
16 2 0.0101089 21.5552 1.43701 1.43687
17 2 0.024908 22.9922 0 0
18 2 0.00894123 24.4293 1.43701 1.43687
19 2 0.0246654 25.8663 0 0
20 2 0.0138206 27.3033 1.43701 1.43687
21 2 0.0269953 0 2.87403 0
22 1 0.0348199 1.43701 4.31105 1.43687
23 2 0.0259234 2.87403 2.87403 0
24 2 0.0127123 4.31105 4.31105 1.43687
25 2 0.0286531 5.74806 2.87403 0
26 1 0.0326654 7.18508 4.31105 1.43687
27 2 0.0266705 8.62209 2.87403 0
28 2 0.0106999 10.0591 4.31105 1.43687
29 2 0.0288506 11.4961 2.87403 0
30 2 0.0122245 12.9331 4.31105 1.43687
31 2 0.027453 14.3702 2.87403 0
32 1 0.0340585 15.8072 4.31105 1.43687
33 2 0.025326 17.2442 2.87403 0
34 1 0.0362206 18.6812 4.31105 1.43687
35 2 0.0265098 20.1182 2.87403 0
36 2 0.0140669 21.5552 4.31105 1.43687
37 2 0.0294864 22.9922 2.87403 0
38 2 0.00803625 24.4293 4.31105 1.43687
39 1 0.0462392 25.8663 2.87403 0
40 2 0.00769505 27.3033 4.31105 1.43687
41 2 0.0250751 0 5.74806 0
42 2 0.0136171 1.43701 7.18508 1.43687
43 1 0.044946 2.87403 5.74806 0
44 2 0.0140327 4.31105 7.18508 1.43687
45 2 0.0260022 5.74806 5.74806 0
46 2 0.0161033 7.18508 7.18508 1.43687
47 2 0.025922 8.62209 5.74806 0
48 2 0.0134332 10.0591 7.18508 1.43687
49 1 0.0480302 11.4961 5.74806 0
50 2 0.0148944 12.9331 7.18508 1.43687
51 2 0.0241208 14.3702 5.74806 0
52 1 0.0323059 15.8072 7.18508 1.43687
53 2 0.0207831 17.2442 5.74806 0
54 2 0.0139307 18.6812 7.18508 1.43687
55 2 0.0266759 20.1182 5.74806 0
56 2 0.011288 21.5552 7.18508 1.43687
57 1 0.0471294 22.9922 5.74806 0
58 2 0.0103631 24.4293 7.18508 1.43687
59 1 0.0463851 25.8663 5.74806 0
60 2 0.014434 27.3033 7.18508 1.43687
61 2 0.0276818 0 8.62209 0
62 2 0.0154651 1.43701 10.0591 1.43687
63 2 0.0285652 2.87403 8.62209 0
64 2 0.0116322 4.31105 10.0591 1.43687
65 2 0.0290158 5.74806 8.62209 0
66 2 0.0110519 7.18508 10.0591 1.43687
67 2 0.029854 8.62209 8.62209 0
68 2 0.016471 10.0591 10.0591 1.43687
69 2 0.0280076 11.4961 8.62209 0
70 2 0.0137053 12.9331 10.0591 1.43687
71 2 0.0246785 14.3702 8.62209 0
72 1 0.027477 15.8072 10.0591 1.43687
73 1 0.0438663 17.2442 8.62209 0
74 2 0.01169 18.6812 10.0591 1.43687
75 2 0.0297695 20.1182 8.62209 0
76 2 0.0128784 21.5552 10.0591 1.43687
77 2 0.0254926 22.9922 8.62209 0
78 1 0.0305103 24.4293 10.0591 1.43687
79 2 0.0245109 25.8663 8.62209 0
80 1 0.0331553 27.3033 10.0591 1.43687
81 2 0.0281213 0 11.4961 0
82 2 0.015392 1.43701 12.9331 1.43687
83 2 0.0294137 2.87403 11.4961 0
84 2 0.0055426 4.31105 12.9331 1.43687
85 1 0.0459976 5.74806 11.4961 0
86 2 0.00598041 7.18508 12.9331 1.43687
87 2 0.0272087 8.62209 11.4961 0
88 2 0.0144921 10.0591 12.9331 1.43687
89 2 0.0307989 11.4961 11.4961 0
90 2 0.0105535 12.9331 12.9331 1.43687
91 2 0.0262644 14.3702 11.4961 0
92 1 0.0261109 15.8072 12.9331 1.43687
93 2 0.0227211 17.2442 11.4961 0
94 2 0.00845388 18.6812 12.9331 1.43687
95 2 0.0296708 20.1182 11.4961 0
96 2 0.0141533 21.5552 12.9331 1.43687
97 2 0.0283104 22.9922 11.4961 0
98 2 0.0121349 24.4293 12.9331 1.43687
99 2 0.0249123 25.8663 11.4961 0
100 2 0.0088003 27.3033 12.9331 1.43687
101 2 0.028396 0 14.3702 0
102 2 0.0133312 1.43701 15.8072 1.43687
103 2 0.0275252 2.87403 14.3702 0
104 2 0.0120225 4.31105 15.8072 1.43687
105 1 0.0465898 5.74806 14.3702 0
106 2 0.010063 7.18508 15.8072 1.43687
107 1 0.0466588 8.62209 14.3702 0
108 2 0.0144209 10.0591 15.8072 1.43687
109 2 0.0288871 11.4961 14.3702 0
110 2 0.0144857 12.9331 15.8072 1.43687
111 2 0.0259848 14.3702 14.3702 0
112 2 0.0117193 15.8072 15.8072 1.43687
113 1 0.0453009 17.2442 14.3702 0
114 2 0.0122129 18.6812 15.8072 1.43687
115 1 0.0461654 20.1182 14.3702 0
116 2 0.0127855 21.5552 15.8072 1.43687
117 2 0.0289404 22.9922 14.3702 0
118 2 0.0135267 24.4293 15.8072 1.43687
119 2 0.0271979 25.8663 14.3702 0
120 1 0.0335772 27.3033 15.8072 1.43687
121 2 0.026585 0 17.2442 0
122 2 0.0112629 1.43701 18.6812 1.43687
123 2 0.030056 2.87403 17.2442 0
124 2 0.0134838 4.31105 18.6812 1.43687
125 2 0.0262852 5.74806 17.2442 0
126 1 0.0355373 7.18508 18.6812 1.43687
127 2 0.0258657 8.62209 17.2442 0
128 2 0.0155461 10.0591 18.6812 1.43687
129 2 0.0275873 11.4961 17.2442 0
130 1 0.034198 12.9331 18.6812 1.43687
131 2 0.028571 14.3702 17.2442 0
132 2 0.0129824 15.8072 18.6812 1.43687
133 2 0.0278741 17.2442 17.2442 0
134 2 0.0108069 18.6812 18.6812 1.43687
135 2 0.0269508 20.1182 17.2442 0
136 1 0.0301109 21.5552 18.6812 1.43687
137 2 0.0286005 22.9922 17.2442 0
138 2 0.0109678 24.4293 18.6812 1.43687
139 2 0.0264231 25.8663 17.2442 0
140 2 0.0114622 27.3033 18.6812 1.43687
141 1 0.0439565 0 20.1182 0
142 1 0.0269511 1.43701 21.5552 1.43687
143 1 0.0409349 2.87403 20.1182 0
144 1 0.02954 4.31105 21.5552 1.43687
145 2 0.024424 5.74806 20.1182 0
146 2 0.0119035 7.18508 21.5552 1.43687
147 2 0.0266328 8.62209 20.1182 0
148 2 0.0126368 10.0591 21.5552 1.43687
149 2 0.0236756 11.4961 20.1182 0
150 1 0.0331694 12.9331 21.5552 1.43687
151 2 0.0235181 14.3702 20.1182 0
152 2 0.0149782 15.8072 21.5552 1.43687
153 1 0.0487848 17.2442 20.1182 0
154 2 0.010769 18.6812 21.5552 1.43687
155 2 0.0255922 20.1182 20.1182 0
156 2 0.0115653 21.5552 21.5552 1.43687
157 2 0.0260986 22.9922 20.1182 0
158 2 0.00688312 24.4293 21.5552 1.43687
159 1 0.046608 25.8663 20.1182 0
160 2 0.00624882 27.3033 21.5552 1.43687
161 2 0.0262742 0 22.9922 0
162 2 0.00753016 1.43701 24.4293 1.43687
163 1 0.0419404 2.87403 22.9922 0
164 2 0.00924351 4.31105 24.4293 1.43687
165 2 0.0237479 5.74806 22.9922 0
166 1 0.0313825 7.18508 24.4293 1.43687
167 1 0.0453674 8.62209 22.9922 0
168 2 0.00625876 10.0591 24.4293 1.43687
169 1 0.0448842 11.4961 22.9922 0
170 2 0.0113565 12.9331 24.4293 1.43687
171 2 0.027033 14.3702 22.9922 0
172 2 0.0130185 15.8072 24.4293 1.43687
173 2 0.0244777 17.2442 22.9922 0
174 1 0.0336965 18.6812 24.4293 1.43687
175 2 0.0285759 20.1182 22.9922 0
176 2 0.0142563 21.5552 24.4293 1.43687
177 2 0.0284889 22.9922 22.9922 0
178 2 0.00918577 24.4293 24.4293 1.43687
179 1 0.0469746 25.8663 22.9922 0
180 2 0.0104104 27.3033 24.4293 1.43687
181 2 0.0287303 0 25.8663 0
182 2 0.00866764 1.43701 27.3033 1.43687
183 2 0.0298217 2.87403 25.8663 0
184 2 0.0101013 4.31105 27.3033 1.43687
185 2 0.0297736 5.74806 25.8663 0
186 2 0.0102163 7.18508 27.3033 1.43687
187 2 0.0233822 8.62209 25.8663 0
188 1 0.0325169 10.0591 27.3033 1.43687
189 2 0.0268382 11.4961 25.8663 0
190 2 0.0114104 12.9331 27.3033 1.43687
191 2 0.0273758 14.3702 25.8663 0
192 1 0.0342258 15.8072 27.3033 1.43687
193 1 0.0430762 17.2442 25.8663 0
194 2 0.00725987 18.6812 27.3033 1.43687
195 2 0.0240582 20.1182 25.8663 0
196 2 0.00623677 21.5552 27.3033 1.43687
197 1 0.046485 22.9922 25.8663 0
198 1 0.0323846 24.4293 27.3033 1.43687
199 2 0.0230957 25.8663 25.8663 0
200 1 0.0338039 27.3033 27.3033 1.43687
201 2 0.011532 0 0 2.87417
202 1 0.0340798 1.43701 1.43701 4.31104
203 1 0.0324129 2.87403 0 2.87417
204 2 0.0119642 4.31105 1.43701 4.31104
205 1 0.0412303 5.74806 0 2.87417
206 2 0.0155809 7.18508 1.43701 4.31104
207 2 0.0157943 8.62209 0 2.87417
208 2 0.0160607 10.0591 1.43701 4.31104
209 2 0.0153265 11.4961 0 2.87417
210 2 0.0157096 12.9331 1.43701 4.31104
211 2 0.0150967 14.3702 0 2.87417
212 2 0.0210061 15.8072 1.43701 4.31104
213 2 0.0174818 17.2442 0 2.87417
214 2 0.0175638 18.6812 1.43701 4.31104
215 1 0.0366923 20.1182 0 2.87417
216 1 0.0334769 21.5552 1.43701 4.31104
217 1 0.0334865 22.9922 0 2.87417
218 1 0.0365005 24.4293 1.43701 4.31104
219 2 0.0104023 25.8663 0 2.87417
220 2 0.0123033 27.3033 1.43701 4.31104
221 2 0.0129359 0 2.87403 2.87417
222 2 0.0128773 1.43701 4.31105 4.31104
223 2 0.0166728 2.87403 2.87403 2.87417
224 2 0.0189545 4.31105 4.31105 4.31104
225 2 0.0162631 5.74806 2.87403 2.87417
226 2 0.0166032 7.18508 4.31105 4.31104
227 1 0.0377132 8.62209 2.87403 2.87417
228 2 0.0108396 10.0591 4.31105 4.31104
229 2 0.0167724 11.4961 2.87403 2.87417
230 1 0.0328384 12.9331 4.31105 4.31104
231 2 0.0163996 14.3702 2.87403 2.87417
232 2 0.0151276 15.8072 4.31105 4.31104
233 2 0.0157749 17.2442 2.87403 2.87417
234 2 0.0177625 18.6812 4.31105 4.31104
235 2 0.012702 20.1182 2.87403 2.87417
236 1 0.0369933 21.5552 4.31105 4.31104
237 2 0.0129708 22.9922 2.87403 2.87417
238 2 0.0141185 24.4293 4.31105 4.31104
239 1 0.0368005 25.8663 2.87403 2.87417
240 1 0.0332653 27.3033 4.31105 4.31104
241 2 0.0156383 0 5.74806 2.87417
242 2 0.0172262 1.43701 7.18508 4.31104
243 2 0.0130743 2.87403 5.74806 2.87417
244 1 0.0339219 4.31105 7.18508 4.31104
245 2 0.016275 5.74806 5.74806 2.87417
246 2 0.0166764 7.18508 7.18508 4.31104
247 2 0.0173954 8.62209 5.74806 2.87417
248 2 0.0180882 10.0591 7.18508 4.31104
249 2 0.0175733 11.4961 5.74806 2.87417
250 2 0.0134967 12.9331 7.18508 4.31104
251 2 0.0131772 14.3702 5.74806 2.87417
252 2 0.01999 15.8072 7.18508 4.31104
253 2 0.0139359 17.2442 5.74806 2.87417
254 2 0.0173424 18.6812 7.18508 4.31104
255 2 0.0120295 20.1182 5.74806 2.87417
256 1 0.034247 21.5552 7.18508 4.31104
257 2 0.0165481 22.9922 5.74806 2.87417
258 2 0.0124003 24.4293 7.18508 4.31104
259 2 0.0154511 25.8663 5.74806 2.87417
260 1 0.0351249 27.3033 7.18508 4.31104
261 2 0.0166216 0 8.62209 2.87417
262 2 0.0205027 1.43701 10.0591 4.31104
263 2 0.0194123 2.87403 8.62209 2.87417
264 2 0.0143969 4.31105 10.0591 4.31104
265 2 0.0159804 5.74806 8.62209 2.87417
266 2 0.0137361 7.18508 10.0591 4.31104
267 2 0.0209503 8.62209 8.62209 2.87417
268 2 0.0189374 10.0591 10.0591 4.31104
269 2 0.0183891 11.4961 8.62209 2.87417
270 1 0.0364852 12.9331 10.0591 4.31104
271 2 0.0137132 14.3702 8.62209 2.87417
272 2 0.0122352 15.8072 10.0591 4.31104
273 2 0.0147306 17.2442 8.62209 2.87417
274 2 0.0159238 18.6812 10.0591 4.31104
275 2 0.0184297 20.1182 8.62209 2.87417
276 2 0.016455 21.5552 10.0591 4.31104
277 1 0.0362387 22.9922 8.62209 2.87417
278 2 0.0136757 24.4293 10.0591 4.31104
279 2 0.011151 25.8663 8.62209 2.87417
280 2 0.012851 27.3033 10.0591 4.31104
281 2 0.0149311 0 11.4961 2.87417
282 2 0.0171578 1.43701 12.9331 4.31104
283 2 0.0182001 2.87403 11.4961 2.87417
284 2 0.015916 4.31105 12.9331 4.31104
285 1 0.0402717 5.74806 11.4961 2.87417
286 2 0.0169473 7.18508 12.9331 4.31104
287 2 0.0202523 8.62209 11.4961 2.87417
288 2 0.0198502 10.0591 12.9331 4.31104
289 2 0.0137081 11.4961 11.4961 2.87417
290 1 0.0350108 12.9331 12.9331 4.31104
291 1 0.0289396 14.3702 11.4961 2.87417
292 2 0.00887574 15.8072 12.9331 4.31104
293 1 0.0349253 17.2442 11.4961 2.87417
294 2 0.0156443 18.6812 12.9331 4.31104
295 2 0.0206947 20.1182 11.4961 2.87417
296 2 0.0168065 21.5552 12.9331 4.31104
297 2 0.0166464 22.9922 11.4961 2.87417
298 2 0.0118417 24.4293 12.9331 4.31104
299 1 0.0320904 25.8663 11.4961 2.87417
300 1 0.0359118 27.3033 12.9331 4.31104
301 2 0.013912 0 14.3702 2.87417
302 2 0.0139041 1.43701 15.8072 4.31104
303 1 0.040343 2.87403 14.3702 2.87417
304 2 0.014783 4.31105 15.8072 4.31104
305 2 0.0185533 5.74806 14.3702 2.87417
306 2 0.020659 7.18508 15.8072 4.31104
307 2 0.0194571 8.62209 14.3702 2.87417
308 2 0.0217979 10.0591 15.8072 4.31104
309 2 0.0169048 11.4961 14.3702 2.87417
310 2 0.0154732 12.9331 15.8072 4.31104
311 1 0.0356222 14.3702 14.3702 2.87417
312 2 0.0182501 15.8072 15.8072 4.31104
313 2 0.0164393 17.2442 14.3702 2.87417
314 2 0.0211125 18.6812 15.8072 4.31104
315 2 0.019814 20.1182 14.3702 2.87417
316 2 0.0166081 21.5552 15.8072 4.31104
317 2 0.0190567 22.9922 14.3702 2.87417
318 2 0.0160913 24.4293 15.8072 4.31104
319 1 0.0337748 25.8663 14.3702 2.87417
320 2 0.0132693 27.3033 15.8072 4.31104
321 2 0.0167694 0 17.2442 2.87417
322 1 0.0323458 1.43701 18.6812 4.31104
323 2 0.0174124 2.87403 17.2442 2.87417
324 2 0.0166855 4.31105 18.6812 4.31104
325 2 0.019373 5.74806 17.2442 2.87417
326 2 0.0153694 7.18508 18.6812 4.31104
327 2 0.0176581 8.62209 17.2442 2.87417
328 2 0.0180832 10.0591 18.6812 4.31104
329 2 0.0151125 11.4961 17.2442 2.87417
330 1 0.0382844 12.9331 18.6812 4.31104
331 2 0.0119783 14.3702 17.2442 2.87417
332 1 0.0387599 15.8072 18.6812 4.31104
333 2 0.0194067 17.2442 17.2442 2.87417
334 2 0.0158784 18.6812 18.6812 4.31104
335 2 0.0175026 20.1182 17.2442 2.87417
336 2 0.0131113 21.5552 18.6812 4.31104
337 2 0.017605 22.9922 17.2442 2.87417
338 2 0.0185842 24.4293 18.6812 4.31104
339 2 0.0183367 25.8663 17.2442 2.87417
340 2 0.0167463 27.3033 18.6812 4.31104
341 2 0.0185585 0 20.1182 2.87417
342 2 0.0145674 1.43701 21.5552 4.31104
343 2 0.0113725 2.87403 20.1182 2.87417
344 2 0.0164356 4.31105 21.5552 4.31104
345 2 0.0171856 5.74806 20.1182 2.87417
346 2 0.0179109 7.18508 21.5552 4.31104
347 2 0.0172191 8.62209 20.1182 2.87417
348 2 0.0193018 10.0591 21.5552 4.31104
349 2 0.0133649 11.4961 20.1182 2.87417
350 2 0.0179083 12.9331 21.5552 4.31104
351 2 0.0101122 14.3702 20.1182 2.87417
352 2 0.0193843 15.8072 21.5552 4.31104
353 2 0.0158572 17.2442 20.1182 2.87417
354 2 0.0155482 18.6812 21.5552 4.31104
355 1 0.0369183 20.1182 20.1182 2.87417
356 2 0.0105446 21.5552 21.5552 4.31104
357 1 0.0369293 22.9922 20.1182 2.87417
358 2 0.0127437 24.4293 21.5552 4.31104
359 2 0.0186869 25.8663 20.1182 2.87417
360 2 0.0184507 27.3033 21.5552 4.31104
361 2 0.0131737 0 22.9922 2.87417
362 1 0.0316711 1.43701 24.4293 4.31104
363 1 0.0320974 2.87403 22.9922 2.87417
364 2 0.0151166 4.31105 24.4293 4.31104
365 2 0.0141186 5.74806 22.9922 2.87417
366 1 0.0334032 7.18508 24.4293 4.31104
367 2 0.0157461 8.62209 22.9922 2.87417
368 2 0.0128558 10.0591 24.4293 4.31104
369 2 0.0151194 11.4961 22.9922 2.87417
370 1 0.0361783 12.9331 24.4293 4.31104
371 2 0.0162342 14.3702 22.9922 2.87417
372 2 0.0200854 15.8072 24.4293 4.31104
373 2 0.0190147 17.2442 22.9922 2.87417
374 2 0.0140866 18.6812 24.4293 4.31104
375 2 0.0173809 20.1182 22.9922 2.87417
376 2 0.0100622 21.5552 24.4293 4.31104
377 2 0.0205926 22.9922 22.9922 2.87417
378 2 0.0113386 24.4293 24.4293 4.31104
379 1 0.0391521 25.8663 22.9922 2.87417
380 1 0.0310305 27.3033 24.4293 4.31104
381 1 0.0287219 0 25.8663 2.87417
382 1 0.0289156 1.43701 27.3033 4.31104
383 1 0.0346993 2.87403 25.8663 2.87417
384 2 0.0106119 4.31105 27.3033 4.31104
385 2 0.0148352 5.74806 25.8663 2.87417
386 2 0.0125981 7.18508 27.3033 4.31104
387 1 0.031399 8.62209 25.8663 2.87417
388 2 0.0115278 10.0591 27.3033 4.31104
389 1 0.0325843 11.4961 25.8663 2.87417
390 1 0.036746 12.9331 27.3033 4.31104
391 2 0.0121425 14.3702 25.8663 2.87417
392 2 0.0179462 15.8072 27.3033 4.31104
393 2 0.0148117 17.2442 25.8663 2.87417
394 2 0.0167837 18.6812 27.3033 4.31104
395 2 0.0196315 20.1182 25.8663 2.87417
396 2 0.00968909 21.5552 27.3033 4.31104
397 2 0.0190969 22.9922 25.8663 2.87417
398 2 0.0125862 24.4293 27.3033 4.31104
399 2 0.00938761 25.8663 25.8663 2.87417
400 1 0.0350719 27.3033 27.3033 4.31104
401 2 0.0109285 0 0 5.74791
402 2 0.0112932 1.43701 1.43701 7.18521
403 1 0.0299561 2.87403 0 5.74791
404 1 0.030054 4.31105 1.43701 7.18521
405 2 0.0146184 5.74806 0 5.74791
406 2 0.0141671 7.18508 1.43701 7.18521
407 2 0.0221615 8.62209 0 5.74791
408 2 0.0150219 10.0591 1.43701 7.18521
409 2 0.0170304 11.4961 0 5.74791
410 2 0.0149999 12.9331 1.43701 7.18521
411 2 0.0188035 14.3702 0 5.74791
412 2 0.0186739 15.8072 1.43701 7.18521
413 2 0.0198694 17.2442 0 5.74791
414 2 0.017965 18.6812 1.43701 7.18521
415 2 0.0140582 20.1182 0 5.74791
416 2 0.0166085 21.5552 1.43701 7.18521
417 2 0.0122639 22.9922 0 5.74791
418 2 0.019797 24.4293 1.43701 7.18521
419 2 0.0147189 25.8663 0 5.74791
420 1 0.0380392 27.3033 1.43701 7.18521
421 1 0.0341828 0 2.87403 5.74791
422 2 0.0172254 1.43701 4.31105 7.18521
423 2 0.0136932 2.87403 2.87403 5.74791
424 2 0.0138667 4.31105 4.31105 7.18521
425 2 0.0188161 5.74806 2.87403 5.74791
426 2 0.0177698 7.18508 4.31105 7.18521
427 2 0.0181639 8.62209 2.87403 5.74791
428 2 0.0152569 10.0591 4.31105 7.18521
429 1 0.0368069 11.4961 2.87403 5.74791
430 2 0.00882859 12.9331 4.31105 7.18521
431 2 0.0132851 14.3702 2.87403 5.74791
432 1 0.0365004 15.8072 4.31105 7.18521
433 2 0.0182998 17.2442 2.87403 5.74791
434 2 0.0137711 18.6812 4.31105 7.18521
435 2 0.0135841 20.1182 2.87403 5.74791
436 2 0.0145847 21.5552 4.31105 7.18521
437 2 0.0118561 22.9922 2.87403 5.74791
438 1 0.0384869 24.4293 4.31105 7.18521
439 2 0.00698086 25.8663 2.87403 5.74791
440 2 0.0138121 27.3033 4.31105 7.18521
441 2 0.0132094 0 5.74806 5.74791
442 2 0.0149593 1.43701 7.18508 7.18521
443 1 0.0375382 2.87403 5.74806 5.74791
444 2 0.0149853 4.31105 7.18508 7.18521
445 2 0.0150395 5.74806 5.74806 5.74791
446 2 0.0161329 7.18508 7.18508 7.18521
447 2 0.0200654 8.62209 5.74806 5.74791
448 2 0.0190814 10.0591 7.18508 7.18521
449 1 0.0345558 11.4961 5.74806 5.74791
450 2 0.0134334 12.9331 7.18508 7.18521
451 1 0.0329723 14.3702 5.74806 5.74791
452 2 0.0113798 15.8072 7.18508 7.18521
453 2 0.0140555 17.2442 5.74806 5.74791
454 1 0.0356672 18.6812 7.18508 7.18521
455 1 0.0323534 20.1182 5.74806 5.74791
456 2 0.0138949 21.5552 7.18508 7.18521
457 2 0.0100918 22.9922 5.74806 5.74791
458 1 0.0317857 24.4293 7.18508 7.18521
459 1 0.0295384 25.8663 5.74806 5.74791
460 2 0.0122972 27.3033 7.18508 7.18521
461 2 0.0140422 0 8.62209 5.74791
462 1 0.0369407 1.43701 10.0591 7.18521
463 2 0.0122091 2.87403 8.62209 5.74791
464 2 0.0166654 4.31105 10.0591 7.18521
465 1 0.0350405 5.74806 8.62209 5.74791
466 1 0.0349952 7.18508 10.0591 7.18521
467 2 0.0160912 8.62209 8.62209 5.74791
468 2 0.0210049 10.0591 10.0591 7.18521
469 2 0.0159559 11.4961 8.62209 5.74791
470 2 0.01891 12.9331 10.0591 7.18521
471 2 0.0193432 14.3702 8.62209 5.74791
472 2 0.0169003 15.8072 10.0591 7.18521
473 2 0.017086 17.2442 8.62209 5.74791
474 2 0.0142488 18.6812 10.0591 7.18521
475 2 0.0149946 20.1182 8.62209 5.74791
476 2 0.0199567 21.5552 10.0591 7.18521
477 2 0.0126989 22.9922 8.62209 5.74791
478 2 0.0148661 24.4293 10.0591 7.18521
479 1 0.0358091 25.8663 8.62209 5.74791
480 2 0.014077 27.3033 10.0591 7.18521
481 2 0.0163742 0 11.4961 5.74791
482 2 0.0153145 1.43701 12.9331 7.18521
483 2 0.0186505 2.87403 11.4961 5.74791
484 2 0.0175846 4.31105 12.9331 7.18521
485 2 0.0130561 5.74806 11.4961 5.74791
486 1 0.0383548 7.18508 12.9331 7.18521
487 2 0.014948 8.62209 11.4961 5.74791
488 2 0.0181824 10.0591 12.9331 7.18521
489 2 0.0149924 11.4961 11.4961 5.74791
490 2 0.0164844 12.9331 12.9331 7.18521
491 2 0.0117948 14.3702 11.4961 5.74791
492 1 0.0349827 15.8072 12.9331 7.18521
493 1 0.03698 17.2442 11.4961 5.74791
494 2 0.0146764 18.6812 12.9331 7.18521
495 2 0.0197061 20.1182 11.4961 5.74791
496 2 0.0135995 21.5552 12.9331 7.18521
497 2 0.0210161 22.9922 11.4961 5.74791
498 2 0.015469 24.4293 12.9331 7.18521
499 2 0.0176051 25.8663 11.4961 5.74791
500 2 0.0170991 27.3033 12.9331 7.18521
501 2 0.0150883 0 14.3702 5.74791
502 2 0.00914911 1.43701 15.8072 7.18521
503 2 0.0158903 2.87403 14.3702 5.74791
504 1 0.0347986 4.31105 15.8072 7.18521
505 2 0.0135132 5.74806 14.3702 5.74791
506 1 0.0339295 7.18508 15.8072 7.18521
507 2 0.0149374 8.62209 14.3702 5.74791
508 2 0.0146515 10.0591 15.8072 7.18521
509 2 0.0140195 11.4961 14.3702 5.74791
510 1 0.0369695 12.9331 15.8072 7.18521
511 2 0.0113772 14.3702 14.3702 5.74791
512 1 0.0362285 15.8072 15.8072 7.18521
513 2 0.0135172 17.2442 14.3702 5.74791
514 2 0.0161123 18.6812 15.8072 7.18521
515 2 0.0193311 20.1182 14.3702 5.74791
516 2 0.0142766 21.5552 15.8072 7.18521
517 1 0.0377157 22.9922 14.3702 5.74791
518 2 0.0152294 24.4293 15.8072 7.18521
519 2 0.0142752 25.8663 14.3702 5.74791
520 1 0.0341888 27.3033 15.8072 7.18521
521 1 0.0301792 0 17.2442 5.74791
522 1 0.0289337 1.43701 18.6812 7.18521
523 1 0.0314786 2.87403 17.2442 5.74791
524 2 0.0115473 4.31105 18.6812 7.18521
525 2 0.0134961 5.74806 17.2442 5.74791
526 1 0.0342272 7.18508 18.6812 7.18521
527 2 0.0129408 8.62209 17.2442 5.74791
528 2 0.0123595 10.0591 18.6812 7.18521
529 2 0.017415 11.4961 17.2442 5.74791
530 2 0.0166411 12.9331 18.6812 7.18521
531 2 0.0102738 14.3702 17.2442 5.74791
532 2 0.0196399 15.8072 18.6812 7.18521
533 2 0.0139026 17.2442 17.2442 5.74791
534 2 0.0205445 18.6812 18.6812 7.18521
535 2 0.0203992 20.1182 17.2442 5.74791
536 2 0.0170508 21.5552 18.6812 7.18521
537 2 0.0197255 22.9922 17.2442 5.74791
538 2 0.015841 24.4293 18.6812 7.18521
539 2 0.0149625 25.8663 17.2442 5.74791
540 1 0.0348519 27.3033 18.6812 7.18521
541 2 0.0111685 0 20.1182 5.74791
542 2 0.0153009 1.43701 21.5552 7.18521
543 1 0.0334569 2.87403 20.1182 5.74791
544 2 0.0150409 4.31105 21.5552 7.18521
545 2 0.0168615 5.74806 20.1182 5.74791
546 2 0.0167769 7.18508 21.5552 7.18521
547 1 0.0341027 8.62209 20.1182 5.74791
548 1 0.0347654 10.0591 21.5552 7.18521
549 2 0.0125768 11.4961 20.1182 5.74791
550 2 0.0180281 12.9331 21.5552 7.18521
551 2 0.0149932 14.3702 20.1182 5.74791
552 2 0.0205084 15.8072 21.5552 7.18521
553 2 0.0166876 17.2442 20.1182 5.74791
554 2 0.0170779 18.6812 21.5552 7.18521
555 2 0.0190621 20.1182 20.1182 5.74791
556 2 0.0112682 21.5552 21.5552 7.18521
557 2 0.0175115 22.9922 20.1182 5.74791
558 2 0.0161213 24.4293 21.5552 7.18521
559 2 0.0186666 25.8663 20.1182 5.74791
560 2 0.0200486 27.3033 21.5552 7.18521
561 2 0.0175745 0 22.9922 5.74791
562 2 0.0206306 1.43701 24.4293 7.18521
563 2 0.0161299 2.87403 22.9922 5.74791
564 2 0.0217703 4.31105 24.4293 7.18521
565 2 0.0192201 5.74806 22.9922 5.74791
566 2 0.0164331 7.18508 24.4293 7.18521
567 2 0.0128545 8.62209 22.9922 5.74791
568 2 0.0157202 10.0591 24.4293 7.18521
569 2 0.0167842 11.4961 22.9922 5.74791
570 2 0.0153544 12.9331 24.4293 7.18521
571 2 0.0177052 14.3702 22.9922 5.74791
572 2 0.0144698 15.8072 24.4293 7.18521
573 2 0.019607 17.2442 22.9922 5.74791
574 2 0.0128191 18.6812 24.4293 7.18521
575 1 0.0359405 20.1182 22.9922 5.74791
576 1 0.0282104 21.5552 24.4293 7.18521
577 1 0.0373523 22.9922 22.9922 5.74791
578 2 0.00939182 24.4293 24.4293 7.18521
579 2 0.0152131 25.8663 22.9922 5.74791
580 2 0.0138112 27.3033 24.4293 7.18521
581 2 0.0101075 0 25.8663 5.74791
582 2 0.0170197 1.43701 27.3033 7.18521
583 2 0.0125525 2.87403 25.8663 5.74791
584 1 0.0318451 4.31105 27.3033 7.18521
585 2 0.0167785 5.74806 25.8663 5.74791
586 2 0.0147868 7.18508 27.3033 7.18521
587 1 0.0374136 8.62209 25.8663 5.74791
588 2 0.0137514 10.0591 27.3033 7.18521
589 2 0.0129038 11.4961 25.8663 5.74791
590 2 0.0123815 12.9331 27.3033 7.18521
591 2 0.0145741 14.3702 25.8663 5.74791
592 2 0.0150653 15.8072 27.3033 7.18521
593 2 0.0190181 17.2442 25.8663 5.74791
594 2 0.0144876 18.6812 27.3033 7.18521
595 1 0.0333263 20.1182 25.8663 5.74791
596 1 0.0348533 21.5552 27.3033 7.18521
597 1 0.0335717 22.9922 25.8663 5.74791
598 2 0.0133023 24.4293 27.3033 7.18521
599 1 0.0346085 25.8663 25.8663 5.74791
600 2 0.014546 27.3033 27.3033 7.18521
601 2 0.0164317 0 0 8.62208
602 2 0.0134076 1.43701 1.43701 10.0589
603 1 0.0309096 2.87403 0 8.62208
604 2 0.0067883 4.31105 1.43701 10.0589
605 1 0.0289344 5.74806 0 8.62208
606 2 0.0167718 7.18508 1.43701 10.0589
607 2 0.0167819 8.62209 0 8.62208
608 2 0.0156155 10.0591 1.43701 10.0589
609 1 0.035604 11.4961 0 8.62208
610 1 0.0373436 12.9331 1.43701 10.0589
611 2 0.0163825 14.3702 0 8.62208
612 2 0.0186034 15.8072 1.43701 10.0589
613 2 0.0203816 17.2442 0 8.62208
614 2 0.0147604 18.6812 1.43701 10.0589
615 2 0.0162547 20.1182 0 8.62208
616 2 0.0130074 21.5552 1.43701 10.0589
617 2 0.0193937 22.9922 0 8.62208
618 2 0.0136624 24.4293 1.43701 10.0589
619 2 0.0135742 25.8663 0 8.62208
620 1 0.0366678 27.3033 1.43701 10.0589
621 2 0.015676 0 2.87403 8.62208
622 2 0.0135107 1.43701 4.31105 10.0589
623 2 0.0182939 2.87403 2.87403 8.62208
624 2 0.0134637 4.31105 4.31105 10.0589
625 1 0.0369078 5.74806 2.87403 8.62208
626 2 0.0136888 7.18508 4.31105 10.0589
627 2 0.020348 8.62209 2.87403 8.62208
628 2 0.0185742 10.0591 4.31105 10.0589
629 2 0.0167656 11.4961 2.87403 8.62208
630 2 0.0148435 12.9331 4.31105 10.0589
631 2 0.0156467 14.3702 2.87403 8.62208
632 2 0.0147974 15.8072 4.31105 10.0589
633 2 0.0164476 17.2442 2.87403 8.62208
634 2 0.0181998 18.6812 4.31105 10.0589
635 1 0.0396093 20.1182 2.87403 8.62208
636 2 0.0171047 21.5552 4.31105 10.0589
637 2 0.0173566 22.9922 2.87403 8.62208
638 2 0.0212725 24.4293 4.31105 10.0589
639 2 0.0128776 25.8663 2.87403 8.62208
640 2 0.0173807 27.3033 4.31105 10.0589
641 2 0.0202883 0 5.74806 8.62208
642 2 0.0123441 1.43701 7.18508 10.0589
643 2 0.0192116 2.87403 5.74806 8.62208
644 2 0.017175 4.31105 7.18508 10.0589
645 2 0.0183301 5.74806 5.74806 8.62208
646 1 0.0337908 7.18508 7.18508 10.0589
647 2 0.0171273 8.62209 5.74806 8.62208
648 2 0.0143984 10.0591 7.18508 10.0589
649 2 0.0179072 11.4961 5.74806 8.62208
650 1 0.0325133 12.9331 7.18508 10.0589
651 1 0.0315112 14.3702 5.74806 8.62208
652 1 0.0296099 15.8072 7.18508 10.0589
653 2 0.010224 17.2442 5.74806 8.62208
654 1 0.0323124 18.6812 7.18508 10.0589
655 2 0.0145855 20.1182 5.74806 8.62208
656 2 0.0189073 21.5552 7.18508 10.0589
657 2 0.0145837 22.9922 5.74806 8.62208
658 2 0.0164869 24.4293 7.18508 10.0589
659 2 0.0156024 25.8663 5.74806 8.62208
660 2 0.0151845 27.3033 7.18508 10.0589
661 1 0.0354398 0 8.62209 8.62208
662 2 0.0122291 1.43701 10.0591 10.0589
663 2 0.017854 2.87403 8.62209 8.62208
664 2 0.0201702 4.31105 10.0591 10.0589
665 2 0.0121463 5.74806 8.62209 8.62208
666 1 0.034377 7.18508 10.0591 10.0589
667 2 0.0121252 8.62209 8.62209 8.62208
668 2 0.0166352 10.0591 10.0591 10.0589
669 2 0.0160481 11.4961 8.62209 8.62208
670 1 0.0382796 12.9331 10.0591 10.0589
671 2 0.0127608 14.3702 8.62209 8.62208
672 2 0.0134599 15.8072 10.0591 10.0589
673 1 0.0303629 17.2442 8.62209 8.62208
674 1 0.0323866 18.6812 10.0591 10.0589
675 2 0.0111869 20.1182 8.62209 8.62208
676 2 0.0153743 21.5552 10.0591 10.0589
677 1 0.0378903 22.9922 8.62209 8.62208
678 2 0.0161047 24.4293 10.0591 10.0589
679 2 0.0128335 25.8663 8.62209 8.62208
680 1 0.0356177 27.3033 10.0591 10.0589
681 2 0.0123938 0 11.4961 8.62208
682 2 0.0112235 1.43701 12.9331 10.0589
683 2 0.018218 2.87403 11.4961 8.62208
684 2 0.0153626 4.31105 12.9331 10.0589
685 2 0.0132791 5.74806 11.4961 8.62208
686 2 0.0202948 7.18508 12.9331 10.0589
687 2 0.0121591 8.62209 11.4961 8.62208
688 2 0.0198314 10.0591 12.9331 10.0589
689 2 0.0160685 11.4961 11.4961 8.62208
690 2 0.0157889 12.9331 12.9331 10.0589
691 2 0.0170571 14.3702 11.4961 8.62208
692 2 0.0191118 15.8072 12.9331 10.0589
693 2 0.0124596 17.2442 11.4961 8.62208
694 2 0.01521 18.6812 12.9331 10.0589
695 2 0.0169482 20.1182 11.4961 8.62208
696 1 0.0309544 21.5552 12.9331 10.0589
697 2 0.0140315 22.9922 11.4961 8.62208
698 1 0.0328361 24.4293 12.9331 10.0589
699 2 0.0188761 25.8663 11.4961 8.62208
700 2 0.0111229 27.3033 12.9331 10.0589
701 1 0.0385305 0 14.3702 8.62208
702 2 0.0128174 1.43701 15.8072 10.0589
703 1 0.0327089 2.87403 14.3702 8.62208
704 1 0.0348424 4.31105 15.8072 10.0589
705 2 0.00983942 5.74806 14.3702 8.62208
706 2 0.0163876 7.18508 15.8072 10.0589
707 2 0.0130765 8.62209 14.3702 8.62208
708 2 0.0155042 10.0591 15.8072 10.0589
709 1 0.0343223 11.4961 14.3702 8.62208
710 1 0.036628 12.9331 15.8072 10.0589
711 2 0.00763801 14.3702 14.3702 8.62208
712 2 0.0154048 15.8072 15.8072 10.0589
713 1 0.0345768 17.2442 14.3702 8.62208
714 2 0.015147 18.6812 15.8072 10.0589
715 2 0.018013 20.1182 14.3702 8.62208
716 2 0.0130611 21.5552 15.8072 10.0589
717 1 0.03271 22.9922 14.3702 8.62208
718 2 0.0125698 24.4293 15.8072 10.0589
719 2 0.0129508 25.8663 14.3702 8.62208
720 2 0.0149191 27.3033 15.8072 10.0589
721 2 0.0125651 0 17.2442 8.62208
722 2 0.0182587 1.43701 18.6812 10.0589
723 2 0.0125145 2.87403 17.2442 8.62208
724 2 0.0171276 4.31105 18.6812 10.0589
725 2 0.0105915 5.74806 17.2442 8.62208
726 2 0.0190847 7.18508 18.6812 10.0589
727 1 0.0363716 8.62209 17.2442 8.62208
728 2 0.0157569 10.0591 18.6812 10.0589
729 2 0.00971087 11.4961 17.2442 8.62208
730 1 0.0376513 12.9331 18.6812 10.0589
731 2 0.0109011 14.3702 17.2442 8.62208
732 2 0.0202323 15.8072 18.6812 10.0589
733 2 0.0168525 17.2442 17.2442 8.62208
734 2 0.016886 18.6812 18.6812 10.0589
735 2 0.0199536 20.1182 17.2442 8.62208
736 2 0.0122576 21.5552 18.6812 10.0589
737 2 0.0196297 22.9922 17.2442 8.62208
738 2 0.0129757 24.4293 18.6812 10.0589
739 2 0.0177318 25.8663 17.2442 8.62208
740 2 0.0164076 27.3033 18.6812 10.0589
741 2 0.0149938 0 20.1182 8.62208
742 2 0.0162274 1.43701 21.5552 10.0589
743 1 0.0337681 2.87403 20.1182 8.62208
744 1 0.0339206 4.31105 21.5552 10.0589
745 2 0.0162285 5.74806 20.1182 8.62208
746 2 0.0164692 7.18508 21.5552 10.0589
747 2 0.0116783 8.62209 20.1182 8.62208
748 2 0.0172702 10.0591 21.5552 10.0589
749 1 0.034862 11.4961 20.1182 8.62208
750 2 0.0165312 12.9331 21.5552 10.0589
751 2 0.0133786 14.3702 20.1182 8.62208
752 1 0.0371629 15.8072 21.5552 10.0589
753 2 0.0140246 17.2442 20.1182 8.62208
754 1 0.0386753 18.6812 21.5552 10.0589
755 2 0.0167167 20.1182 20.1182 8.62208
756 2 0.0130015 21.5552 21.5552 10.0589
757 1 0.039687 22.9922 20.1182 8.62208
758 2 0.00876188 24.4293 21.5552 10.0589
759 2 0.0156056 25.8663 20.1182 8.62208
760 2 0.0176861 27.3033 21.5552 10.0589
761 2 0.0197462 0 22.9922 8.62208
762 2 0.0203852 1.43701 24.4293 10.0589
763 2 0.0162766 2.87403 22.9922 8.62208
764 2 0.0160253 4.31105 24.4293 10.0589
765 2 0.0142087 5.74806 22.9922 8.62208
766 1 0.0380496 7.18508 24.4293 10.0589
767 2 0.0169527 8.62209 22.9922 8.62208
768 2 0.0171054 10.0591 24.4293 10.0589
769 2 0.015785 11.4961 22.9922 8.62208
770 2 0.0150953 12.9331 24.4293 10.0589
771 2 0.0148226 14.3702 22.9922 8.62208
772 1 0.0329556 15.8072 24.4293 10.0589
773 2 0.011669 17.2442 22.9922 8.62208
774 2 0.0145896 18.6812 24.4293 10.0589
775 2 0.0173511 20.1182 22.9922 8.62208