# LAMMPS data file written by OVITO Basic 3.5.4
2202 atoms
3 atom types
10.4742766482 39.5257233518 xlo xhi
10.4742766482 39.5257233518 ylo yhi
10.4742766482 39.5257233518 zlo zhi

Masses

1 12.0107  # C
2 1.00794  # H
3 15.9994  # O

Atoms  # charge

1748 2 0.0 15.5157 13.3403 11.7005
1762 2 0.0 13.8434 17.5436 12.3044
936 1 0.0 15.9874 12.3867 11.9199
1751 2 0.0 12.4091 14.0762 13.7107
972 1 0.0 14.6673 12.1437 14.0613
942 1 0.0 17.465 10.6087 11.1168
943 1 0.0 15.5989 11.5511 12.9839
941 1 0.0 16.9464 11.9171 11.0205
963 1 0.0 17.4347 15.7297 13.5165
2180 3 0.0 14.2381 13.4214 13.5729
1252 2 0.0 12.5293 10.905 12.9059
1765 2 0.0 16.4559 16.2419 13.5416
1768 2 0.0 17.3157 14.7381 13.8944
107 1 0.0 10.5793 16.6821 12.2196
973 1 0.0 13.2039 13.9924 14.4529
2009 3 0.0 15.6918 13.86 16.5491
974 1 0.0 13.479 15.3333 15.0985
2186 3 0.0 13.7164 16.5035 14.1922
975 1 0.0 14.5652 17.4534 14.8064
2192 3 0.0 14.3272 11.5622 15.1404
1781 2 0.0 14.217 15.296 15.8723
1779 2 0.0 12.8684 13.2446 15.2452
515 1 0.0 16.9454 13.9816 16.8251
1782 2 0.0 12.6024 15.6643 15.6084
1407 2 0.0 16.7763 11.5222 15.9485
532 1 0.0 17.6213 15.0538 17.642
2193 3 0.0 15.0532 17.4937 16.0136
1406 2 0.0 17.1462 12.6067 14.6229
1925 3 0.0 10.8227 10.9883 14.7948
514 1 0.0 17.5916 12.1345 15.4951
1013 2 0.0 10.8013 17.1356 17.591
750 1 0.0 13.3992 15.6507 20.1924
16 1 0.0 13.6344 16.8464 19.5286
14 1 0.0 12.6915 17.3473 18.6042
1598 2 0.0 14.1641 15.2571 20.9299
474 1 0.0 16.2397 11.6559 19.3291
483 1 0.0 16.0255 12.8673 20.1202
1017 2 0.0 14.457 17.463 19.8608
512 1 0.0 12.1646 14.9849 19.9286
1558 2 0.0 15.0396 13.0383 20.4169
991 1 0.0 17.1289 13.5251 20.6909
730 1 0.0 11.8959 13.6258 20.5256
978 1 0.0 17.5389 11.3009 18.891
7 1 0.0 15.2015 10.6677 18.9017
1428 2 0.0 15.7741 15.7938 18.4775
533 1 0.0 16.8176 15.9864 18.2735
9 1 0.0 11.2668 15.4863 18.9781
545 1 0.0 17.4371 17.0817 18.9198
10 1 0.0 11.4828 16.6794 18.2838
2103 3 0.0 10.9463 12.846 20.1448
1804 3 0.0 13.8966 10.9692 19.3952
1784 2 0.0 17.7308 10.4888 18.1868
1585 2 0.0 12.9093 11.272 21.3364
738 1 0.0 13.5595 11.8065 23.3671
2112 3 0.0 15.8129 13.3779 23.6545
326 1 0.0 11.5173 16.6589 23.6472
1584 2 0.0 11.6413 11.9648 22.261
735 1 0.0 12.7285 12.06 22.0582
1936 3 0.0 12.5011 15.8191 23.604
1589 2 0.0 14.6033 11.5476 23.085
756 1 0.0 14.7297 13.6669 24.3052
1403 2 0.0 10.5997 10.8771 24.2259
2111 3 0.0 13.5472 12.8885 24.3995
1587 2 0.0 13.1785 10.8713 23.7945
1273 2 0.0 11.0309 14.309 24.7864
1601 2 0.0 16.892 15.2921 24.2488
1797 2 0.0 17.0588 14.3999 21.3741
2101 3 0.0 12.9787 13.3605 21.4246
1448 2 0.0 13.8886 17.6949 24.4259
757 1 0.0 14.4967 16.1828 27.1338
1597 2 0.0 13.7516 16.4608 27.8855
1599 2 0.0 13.3807 14.526 26.4812
1028 2 0.0 16.9806 14.4278 27.9405
1603 2 0.0 17.3999 17.2979 25.6951
752 1 0.0 14.2212 15.1215 26.3196
1027 2 0.0 17.1354 12.3168 27.0843
1814 3 0.0 14.3137 11.9614 27.8102
1054 2 0.0 15.468 13.7137 28.3364
753 1 0.0 16.5582 16.6832 25.8504
751 1 0.0 15.6065 17.0428 26.8627
25 1 0.0 15.0593 11.0568 28.3584
1450 2 0.0 10.8921 16.63 28.4916
26 1 0.0 17.1063 12.3267 28.2362
53 1 0.0 16.51 13.69 28.5581
754 1 0.0 15.1024 14.7928 25.2429
755 1 0.0 16.2423 15.56 25.0484
1446 2 0.0 10.5991 15.8556 26.9599
1830 3 0.0 16.7343 14.213 29.9741
1829 3 0.0 14.3938 15.0311 29.7898
63 1 0.0 15.5142 15.5615 31.7492
1059 2 0.0 10.6897 17.629 30.216
1815 3 0.0 16.453 11.0563 28.6796
62 1 0.0 15.5323 14.831 30.4091
1057 2 0.0 13.6355 16.4284 31.1474
1046 2 0.0 12.8532 13.8678 31.0593
47 1 0.0 11.8601 13.8669 31.5197
1045 2 0.0 11.1992 14.1016 30.6886
61 1 0.0 14.3427 16.3317 31.9222
1825 3 0.0 11.5691 12.4571 31.9714
1026 2 0.0 12.457 11.1003 28.9514
65 1 0.0 16.4951 16.1368 33.8806
68 1 0.0 14.0384 13.8904 34.9663
1060 2 0.0 17.4291 14.8112 32.4159
1055 2 0.0 14.9095 14.3177 34.5809
64 1 0.0 16.5577 15.4259 32.6906
2165 3 0.0 15.4454 12.5707 33.0931
67 1 0.0 15.3098 16.8843 34.0836
1840 3 0.0 11.6989 16.7896 34.6804
928 1 0.0 12.5409 11.9035 35.2154
874 1 0.0 14.5368 11.8402 33.6555
873 1 0.0 13.678 12.5229 34.6672
1695 2 0.0 12.3368 10.9099 35.0112
1696 2 0.0 16.1729 10.5099 32.5915
1061 2 0.0 17.2964 16.0877 34.6505
1048 2 0.0 12.3125 14.5109 33.4723
48 1 0.0 11.7093 14.8598 32.6701
66 1 0.0 14.2014 16.9668 33.1655
49 1 0.0 10.6581 16.0642 34.4081
1093 2 0.0 13.3238 17.5173 33.3953
1047 2 0.0 12.092 15.8659 32.4848
1850 3 0.0 16.3647 17.6073 36.0039
954 1 0.0 14.7979 13.2025 38.127
949 1 0.0 14.5525 14.5621 38.6908
2184 3 0.0 15.5397 15.4388 38.1161
950 1 0.0 15.8589 13.0542 37.2355
1091 2 0.0 14.1834 17.1435 37.7228
957 1 0.0 15.1852 16.8883 38.1064
1750 2 0.0 13.1477 12.2392 39.1969
1760 2 0.0 16.5193 13.8652 36.9704
1095 2 0.0 13.6113 15.473 36.3232
97 1 0.0 12.0759 13.9536 36.493
937 1 0.0 13.9414 12.153 38.5073
1746 2 0.0 10.9272 12.126 36.5807
1754 2 0.0 17.1176 12.5906 39.2413
888 1 0.0 15.9752 11.8221 36.6051
935 1 0.0 14.0223 10.9263 37.8722
934 1 0.0 11.7788 12.6187 36.1508
929 1 0.0 15.0207 10.8369 36.886
111 1 0.0 13.2931 14.5198 35.9701
96 1 0.0 11.2331 14.7421 37.4181
1848 3 0.0 11.5768 15.9255 37.7865
1710 2 0.0 16.7686 11.6398 35.9577
1761 2 0.0 15.0647 17.065 39.1846
2183 3 0.0 13.5057 14.902 39.3648
1769 2 0.0 17.6016 15.9866 39.0002
119 1 0.0 12.6189 22.0931 12.8751
951 1 0.0 14.4399 18.4069 12.5402
115 1 0.0 11.3067 18.6577 13.7242
952 1 0.0 14.8412 19.331 11.5869
1774 2 0.0 16.6408 21.4749 13.6525
116 1 0.0 11.9793 20.7581 12.7753
968 1 0.0 15.8419 21.6084 11.0074
117 1 0.0 11.2738 18.9141 11.311
1764 2 0.0 11.7632 20.917 10.6194
1851 3 0.0 12.804 22.7612 11.5878
2191 3 0.0 16.4486 22.7217 11.2928
953 1 0.0 15.5305 20.5211 11.9794
109 1 0.0 11.6503 20.2491 11.4949
1773 2 0.0 14.1195 24.2317 11.9716
113 1 0.0 11.072 18.0845 12.4521
118 1 0.0 13.0648 24.1783 11.8952
1098 2 0.0 12.7444 24.3901 12.9216
967 1 0.0 16.0744 20.6054 13.2925
1763 2 0.0 14.508 19.2534 10.6001
955 1 0.0 15.0175 18.5389 13.8348
114 1 0.0 11.7614 19.9664 13.941
1871 3 0.0 15.469 24.476 14.0163
1166 2 0.0 10.5255 23.4991 13.7821
1853 3 0.0 12.7464 22.5161 14.0886
1191 2 0.0 10.8016 23.5638 15.465
243 1 0.0 14.316 24.2678 16.4791
1092 2 0.0 11.2491 17.9588 14.5827
1097 2 0.0 12.0471 20.3149 14.9037
1810 3 0.0 16.4039 21.8654 16.129
1780 2 0.0 16.0304 19.7319 15.3206
11 1 0.0 17.2082 21.248 16.9257
1808 3 0.0 12.2371 19.4091 17.249
1014 2 0.0 14.2352 20.7005 17.1868
1196 2 0.0 14.2846 23.2673 15.9964
956 1 0.0 15.7556 19.6323 14.2727
1200 2 0.0 15.4032 24.4333 16.4928
1329 2 0.0 11.2001 21.6639 19.0996
1809 3 0.0 14.2103 19.1199 18.6147
1018 2 0.0 15.6103 20.8346 19.8981
1506 2 0.0 11.4108 23.5409 21.1786
15 1 0.0 13.0131 18.6934 17.9996
12 1 0.0 15.6717 21.1747 18.8324
1807 3 0.0 16.9711 20.731 18.2385
13 1 0.0 14.3648 20.6081 18.298
1902 3 0.0 12.7065 23.3436 18.2903
1016 2 0.0 15.6922 22.2405 18.8678
1015 2 0.0 13.4725 21.1821 18.6515
1201 2 0.0 14.7217 23.9036 18.5766
244 1 0.0 13.9005 24.1806 17.9633
238 1 0.0 11.5586 24.1007 17.9939
1600 2 0.0 16.9132 17.936 19.3245
2063 3 0.0 13.414 22.416 22.5229
645 1 0.0 14.7975 23.7233 24.9338
1510 2 0.0 15.3823 22.9452 24.4143
640 1 0.0 12.772 23.1761 23.3695
569 1 0.0 13.8361 18.6682 23.9682
1274 2 0.0 12.6218 19.5619 22.4402
639 1 0.0 13.3833 23.8422 24.6104
1505 2 0.0 11.0301 22.0231 22.0044
637 1 0.0 10.8227 23.0823 21.9879
2061 3 0.0 11.4507 23.6539 23.2921
1275 2 0.0 13.1523 17.8408 22.092
327 1 0.0 12.782 18.5669 22.8692
1449 2 0.0 14.8418 19.0127 23.5785
2026 3 0.0 11.4633 18.0375 23.3022
2028 3 0.0 15.6872 20.4596 24.6947
1475 2 0.0 12.2157 21.4002 26.5735
867 1 0.0 15.3891 24.5957 25.8054
638 1 0.0 12.5746 24.7497 25.3412
1680 2 0.0 16.453 24.5596 26.0812
599 1 0.0 14.3839 21.3025 26.5538
1451 2 0.0 16.5202 21.6283 26.5166
2120 3 0.0 16.9069 19.0072 27.6874
600 1 0.0 15.5918 21.7916 27.066
601 1 0.0 13.1356 21.6786 27.095
759 1 0.0 15.8864 18.2276 27.7368
602 1 0.0 13.0557 22.4709 28.2433
604 1 0.0 15.5405 22.4516 28.2846
1503 2 0.0 11.5431 24.6961 25.1813
570 1 0.0 14.5292 20.5089 25.2674
2043 3 0.0 10.6355 20.408 28.0436
2027 3 0.0 13.4186 19.6375 25.0394
807 1 0.0 14.3483 22.9969 30.3841
69 1 0.0 11.9787 19.17 32.1305
603 1 0.0 14.2882 22.6079 28.9278
1728 2 0.0 14.3427 18.376 31.5338
1064 2 0.0 14.1452 20.1027 31.4751
2044 3 0.0 13.0468 23.0291 31.0318
27 1 0.0 14.0622 19.2095 30.9003
1619 2 0.0 16.0221 19.6395 29.8066
2130 3 0.0 15.5028 22.8682 30.9599
1831 3 0.0 12.6156 18.8982 30.8742
1637 2 0.0 16.4814 22.8214 28.709
60 1 0.0 10.6115 18.5905 32.1759
777 1 0.0 14.9254 19.4164 29.6443
1476 2 0.0 12.1085 22.8411 28.6692
1030 2 0.0 14.4717 20.3255 29.2412
2109 3 0.0 14.7606 18.3313 28.6569
2166 3 0.0 15.8396 23.6145 34.7482
2062 3 0.0 11.6408 23.8257 35.7203
890 1 0.0 15.6654 22.3394 34.5768
2164 3 0.0 14.9038 21.5431 35.4602
1499 2 0.0 14.024 24.775 33.0662
895 1 0.0 16.0944 20.0991 33.6464
1502 2 0.0 13.5331 23.8075 34.4615
897 1 0.0 17.3053 21.8869 32.5744
891 1 0.0 16.3993 21.4663 33.5773
1832 3 0.0 12.3408 19.8875 33.1574
894 1 0.0 16.8427 19.1811 32.9425
1709 2 0.0 15.4542 19.7822 34.4324
1707 2 0.0 17.5404 22.9418 32.4312
635 1 0.0 13.2583 24.0443 33.4106
840 1 0.0 11.402 24.6115 34.7191
808 1 0.0 13.2147 22.757 32.4934
1708 2 0.0 16.7243 18.1184 33.1105
2139 3 0.0 12.0238 24.8021 33.4128
1638 2 0.0 12.2757 22.1849 32.7107
1639 2 0.0 14.0992 22.0704 32.5943
1849 3 0.0 14.0033 18.2613 35.646
1718 2 0.0 17.6977 21.9397 35.4173
112 1 0.0 15.128 17.7481 35.2781
1759 2 0.0 17.0688 17.9992 38.012
1711 2 0.0 13.5075 21.9161 37.0012
1772 2 0.0 15.3915 23.2869 38.4487
911 1 0.0 15.4608 22.3202 37.8701
899 1 0.0 14.4889 22.3554 36.6656
2185 3 0.0 15.2171 21.1987 38.8492
1096 2 0.0 15.6622 18.9169 37.488
1719 2 0.0 14.3454 23.3797 36.2331
1725 2 0.0 16.5155 22.1934 37.5988
948 1 0.0 16.1124 17.9328 37.4292
1766 2 0.0 11.0788 18.4528 39.3869
1775 2 0.0 15.0742 24.9014 37.6871
182 1 0.0 13.2769 27.4733 13.7773
1903 3 0.0 16.7874 30.3749 13.0087
184 1 0.0 13.1177 28.602 12.9448
158 1 0.0 15.0644 26.73 12.3012
1151 2 0.0 12.506 29.4141 13.2421
1099 2 0.0 12.7319 26.2614 11.4716
181 1 0.0 14.8427 27.8196 11.4483
1209 2 0.0 17.0311 28.2501 12.3217
247 1 0.0 16.7172 31.2918 13.8968
183 1 0.0 13.8258 28.7907 11.7376
157 1 0.0 14.2979 26.5243 13.4632
1236 2 0.0 12.5712 32.0539 14.06
1130 2 0.0 15.8735 26.0367 12.1446
1100 2 0.0 11.4978 25.3259 10.8249
186 1 0.0 13.4527 29.9414 10.8358
1882 3 0.0 12.5555 30.8806 11.4757
1145 2 0.0 15.4481 27.9768 10.592
121 1 0.0 12.5342 25.3169 10.9507
1150 2 0.0 10.8859 32.2541 11.7017
405 1 0.0 12.4456 29.6816 16.9611
1232 2 0.0 12.6562 27.2747 14.6036
398 1 0.0 11.4133 28.7889 17.2274
402 1 0.0 16.5746 31.9917 16.3624
249 1 0.0 16.8236 29.616 15.7259
1900 3 0.0 11.5845 25.284 17.4425
1901 3 0.0 13.7775 25.2997 15.5513
1920 3 0.0 13.5855 30.9905 15.5149
283 1 0.0 12.2863 30.338 15.6175
1338 2 0.0 16.5936 28.113 17.2421
248 1 0.0 16.7795 30.9848 15.4124
414 1 0.0 16.438 31.5677 17.6796
1917 3 0.0 11.2796 30.2634 14.7957
408 1 0.0 16.663 29.179 17.0142
246 1 0.0 14.5789 25.3545 14.37
1202 2 0.0 17.1444 28.9008 14.9064
1199 2 0.0 10.6987 28.6587 16.4524
288 1 0.0 13.3932 32.2393 14.772
1172 2 0.0 17.5439 26.7816 14.1559
460 1 0.0 11.1674 31.6634 19.0944
1197 2 0.0 13.668 25.1405 18.391
1369 2 0.0 10.7076 31.6998 18.1665
1973 3 0.0 16.4741 28.5402 19.7219
1974 3 0.0 16.0601 30.9439 20.3588
410 1 0.0 16.313 29.798 19.4769
404 1 0.0 12.6268 27.9905 19.1053
403 1 0.0 12.7797 26.958 20.2492
1969 3 0.0 11.6707 26.3446 20.4854
1972 3 0.0 13.9491 27.1434 21.0098
412 1 0.0 13.4716 29.8852 17.8814
1339 2 0.0 14.1684 29.2993 19.8491
459 1 0.0 10.5525 30.9848 20.1352
399 1 0.0 11.528 27.8461 18.2416
1335 2 0.0 10.8012 27.0499 18.4286
407 1 0.0 13.4533 29.1239 19.0349
409 1 0.0 16.5061 30.19 18.0336
1374 2 0.0 14.1199 30.7309 17.7605
454 1 0.0 11.2778 30.8992 21.3424
1340 2 0.0 16.6845 29.659 21.9106
1378 2 0.0 17.3143 31.857 22.6412
2078 3 0.0 11.1771 30.0742 23.5517
1336 2 0.0 12.9028 26.6303 22.8184
466 1 0.0 16.3513 31.485 22.8639
463 1 0.0 10.6332 29.9662 22.368
1341 2 0.0 15.8355 26.8899 22.9218
2064 3 0.0 14.4597 27.8721 24.2744
1508 2 0.0 15.1261 25.9364 24.0831
1342 2 0.0 14.9781 30.1228 21.853
411 1 0.0 14.9031 26.7133 23.3935
1373 2 0.0 12.9809 31.5421 22.585
406 1 0.0 13.8378 26.4009 22.3605
1337 2 0.0 13.7103 25.3971 22.0121
1544 2 0.0 16.3818 30.9111 23.7755
1507 2 0.0 13.0606 29.6069 24.7961
413 1 0.0 15.9705 30.4851 21.7333
453 1 0.0 12.4914 31.5911 21.6395
683 1 0.0 15.1824 31.4289 27.4549
642 1 0.0 14.917 29.6326 25.8031
2148 3 0.0 14.3919 27.0563 28.3522
864 1 0.0 15.2843 26.1796 27.6764
679 1 0.0 14.5327 25.4287 26.5972
1540 2 0.0 12.4221 25.9989 27.0444
643 1 0.0 15.6905 30.3457 26.7588
2065 3 0.0 16.7992 28.2288 25.1258
1547 2 0.0 12.109 31.5495 25.9278
682 1 0.0 13.0848 31.2051 26.2089
644 1 0.0 13.5971 30.0866 25.5481
2151 3 0.0 16.513 25.8513 27.9528
675 1 0.0 13.1222 25.4741 26.3879
1542 2 0.0 11.1516 30.5602 28.21
1550 2 0.0 15.7303 31.9751 28.2007
1539 2 0.0 11.3257 28.3005 27.151
685 1 0.0 13.9357 31.947 27.0827
1509 2 0.0 16.7596 30.0271 26.8848
641 1 0.0 15.5207 28.4799 25.0386
2150 3 0.0 13.4557 26.4283 31.0088
866 1 0.0 14.8875 26.8182 30.8197
1679 2 0.0 15.2277 27.2566 31.7754
863 1 0.0 12.5898 27.5046 31.424
1678 2 0.0 15.5183 25.9202 30.6963
2147 3 0.0 12.8144 28.7039 31.8533
861 1 0.0 11.2775 26.9947 30.9514
862 1 0.0 11.0584 25.6278 30.6772
1676 2 0.0 14.5864 28.6246 29.7863
865 1 0.0 15.0584 27.6919 29.5447
1677 2 0.0 16.1793 27.8421 29.3529
1665 2 0.0 11.8947 25.026 30.8746
908 1 0.0 17.0981 26.8556 33.9811
914 1 0.0 14.7268 27.4351 34.6802
2169 3 0.0 17.2302 27.9095 33.2136
1062 2 0.0 14.711 28.1992 33.8657
909 1 0.0 15.9008 26.6424 34.8305
1208 2 0.0 17.2652 29.4295 35.6552
1579 2 0.0 11.934 31.7855 32.3017
1065 2 0.0 12.7108 27.6433 35.305
70 1 0.0 13.6553 27.1178 35.4848
1663 2 0.0 10.5218 26.2392 32.8207
910 1 0.0 15.9948 25.6903 35.8886
253 1 0.0 17.3973 30.0084 37.7602
1880 3 0.0 14.0211 30.0449 38.7381
1205 2 0.0 16.8144 28.1406 36.7438
1147 2 0.0 11.9459 31.2833 38.5374
185 1 0.0 12.1876 31.8371 39.4047
1904 3 0.0 17.5418 29.4073 39.1174
913 1 0.0 14.9473 25.5163 36.7879
1854 3 0.0 11.5818 26.7084 37.8144
120 1 0.0 12.7382 26.154 37.7275
1207 2 0.0 16.4766 30.6163 37.7136
903 1 0.0 13.7678 26.2698 36.6126
254 1 0.0 17.5019 28.9646 36.6237
1852 3 0.0 13.2397 25.2266 38.7022
1726 2 0.0 16.876 25.0926 36.0068
280 1 0.0 13.8697 38.3978 12.2835
284 1 0.0 16.5932 32.9033 12.1654
1231 2 0.0 14.1037 35.4185 13.8652
945 1 0.0 16.2385 39.3675 13.199
287 1 0.0 15.4558 36.4421 11.8286
1233 2 0.0 10.7383 36.7342 13.2987
285 1 0.0 14.3047 37.0962 12.5901
286 1 0.0 16.7634 34.3625 11.7036
1921 3 0.0 16.0511 37.0685 10.8405
1919 3 0.0 15.5944 35.1047 12.3021
1241 2 0.0 16.7901 34.4283 10.5422
187 1 0.0 11.1254 32.8333 10.7578
1154 2 0.0 11.5001 33.8623 10.9389
1242 2 0.0 14.2472 38.9799 11.5054
944 1 0.0 17.1862 38.9 12.2866
281 1 0.0 12.8737 38.9392 13.14
1747 2 0.0 12.935 36.2454 10.8242
1918 3 0.0 16.541 32.6827 13.6436
275 1 0.0 13.7567 36.3916 13.6775
1203 2 0.0 15.7128 32.5341 11.6675
1239 2 0.0 17.7213 34.8097 12.1331
1756 2 0.0 17.6712 37.9505 12.4316
1204 2 0.0 17.3755 32.3012 11.7454
1757 2 0.0 15.961 38.7287 13.9932
476 1 0.0 17.6883 36.5116 17.1842
273 1 0.0 12.3747 38.309 14.2689
1382 2 0.0 17.4758 36.6477 14.2632
1230 2 0.0 12.6008 36.5253 15.3812
1994 3 0.0 16.4918 36.0035 17.1671
289 1 0.0 13.0493 33.3696 15.7665
1377 2 0.0 13.9487 33.8505 16.1152
1988 3 0.0 12.3746 32.7744 16.9648
1240 2 0.0 12.3977 34.1254 15.3387
274 1 0.0 12.8519 37.0069 14.5292
282 1 0.0 11.353 38.9552 15.2308
1914 3 0.0 10.7042 34.5034 14.3621
1916 3 0.0 10.9879 38.1321 16.3633
1237 2 0.0 16.4695 33.0195 16.0982
1238 2 0.0 14.3226 32.5163 14.1722
4 1 0.0 16.8771 34.2232 20.8161
24 1 0.0 14.685 37.2463 21.2945
5 1 0.0 15.9506 35.1989 20.524
1006 2 0.0 15.2441 35.1225 19.7169
6 1 0.0 12.9339 38.8659 18.9118
1805 3 0.0 13.8532 36.8932 20.155
1011 2 0.0 16.8561 37.1771 19.7749
465 1 0.0 13.0772 32.9912 18.1644
464 1 0.0 13.0667 32.2786 20.5902
1009 2 0.0 11.8376 37.0716 19.5853
8 1 0.0 12.6645 37.7694 19.916
1989 3 0.0 14.2142 33.6258 18.392
1007 2 0.0 13.3904 38.419 18.0234
1375 2 0.0 14.0355 32.7621 20.6922
1005 2 0.0 16.7858 33.2751 20.2307
1010 2 0.0 12.2753 38.2071 20.842
1008 2 0.0 12.0658 39.4167 18.5965
1806 3 0.0 15.573 38.8577 18.0049
461 1 0.0 12.3979 32.398 19.3369
1376 2 0.0 16.3188 32.3253 18.4387
1546 2 0.0 12.1905 36.1027 23.2703
468 1 0.0 14.974 34.5326 24.5853
470 1 0.0 13.8832 34.7678 23.6812
23 1 0.0 15.902 36.3179 21.397
1813 3 0.0 14.6093 38.211 22.1307
22 1 0.0 16.7927 36.5052 22.4956
1545 2 0.0 13.7258 34.0976 22.8991
1990 3 0.0 15.452 32.6816 23.0528
680 1 0.0 13.0691 35.8827 23.8754
1022 2 0.0 16.6435 37.2734 23.178
2097 3 0.0 11.3958 38.0028 24.2475
467 1 0.0 15.8629 33.3869 24.236
472 1 0.0 13.3869 36.6895 24.9928
471 1 0.0 14.4747 36.5475 25.8432
2005 3 0.0 12.6435 38.4079 26.3385
1549 2 0.0 12.4125 35.6623 26.7834
510 1 0.0 12.4756 37.8855 25.1646
469 1 0.0 15.2228 35.3648 25.6993
1548 2 0.0 11.9146 35.1619 28.3574
681 1 0.0 11.8029 34.955 27.2867
1379 2 0.0 16.0384 35.1301 26.3305
1404 2 0.0 14.7035 37.3006 26.5562
2082 3 0.0 14.2785 34.0798 28.3579
2081 3 0.0 12.2476 33.5538 27.1179
684 1 0.0 13.5508 33.2959 27.6405
1575 2 0.0 10.6834 39.3073 25.8634
1991 3 0.0 16.8214 33.0468 25.0461
1586 2 0.0 14.4513 35.7754 30.3187
1582 2 0.0 14.8489 33.6422 31.0088
732 1 0.0 14.7589 37.7831 29.4849
733 1 0.0 14.0209 36.7465 29.9737
1577 2 0.0 11.6615 33.137 30.4946
1694 2 0.0 15.1506 38.1956 32.0137
734 1 0.0 12.6322 36.9321 30.0538
722 1 0.0 11.8814 33.7548 31.372
1583 2 0.0 11.0416 38.5181 29.7893
1588 2 0.0 15.836 37.6459 29.485
1409 2 0.0 16.6278 35.0867 29.9468
2102 3 0.0 12.6178 34.9311 30.9612
516 1 0.0 15.5887 34.1559 31.6272
517 1 0.0 16.602 34.9623 31.0382
737 1 0.0 12.1007 38.1898 29.693
731 1 0.0 14.2564 38.9947 28.9588
736 1 0.0 11.6483 35.9178 30.4934
1576 2 0.0 10.8041 34.0794 31.6074
739 1 0.0 12.8611 39.205 29.077
518 1 0.0 17.5571 35.5355 31.9028
1824 3 0.0 11.2816 37.7227 35.707
520 1 0.0 16.4728 34.6889 33.9006
875 1 0.0 16.0577 37.8903 33.8944
740 1 0.0 15.5718 34.0128 33.0535
39 1 0.0 11.0352 37.4736 32.9545
2158 3 0.0 16.2632 38.8113 35.1095
876 1 0.0 15.3761 38.8351 32.8923
1816 3 0.0 10.4847 34.8096 33.9142
746 1 0.0 14.5333 33.0243 33.5548
1412 2 0.0 16.3456 34.5913 35.008
1593 2 0.0 12.1595 33.2362 33.4397
1692 2 0.0 15.4978 37.0155 34.1775
1039 2 0.0 11.8001 36.9176 33.3891
1693 2 0.0 17.0195 37.5038 33.5377
2156 3 0.0 14.2066 39.4752 33.4859
743 1 0.0 12.3911 32.7515 32.4827
519 1 0.0 17.5097 35.4374 33.3229
2106 3 0.0 14.2582 33.0074 34.8092
2105 3 0.0 13.8521 32.444 32.4176
1040 2 0.0 12.0673 39.2818 32.5232
41 1 0.0 11.1445 38.7832 32.5123
2178 3 0.0 14.6537 33.5379 38.4214
90 1 0.0 10.8887 38.1524 36.8622
931 1 0.0 15.1165 34.7354 38.1922
2179 3 0.0 14.3689 35.9366 38.3414
930 1 0.0 16.48 34.9978 37.6447
1841 3 0.0 11.4296 37.8707 38.1779
878 1 0.0 16.9187 36.2604 37.2583
933 1 0.0 12.9381 35.696 38.8962
1749 2 0.0 13.3241 39.2325 38.0446
1745 2 0.0 12.7346 34.6522 39.0637
932 1 0.0 11.8498 36.4146 38.0819
1752 2 0.0 16.9372 32.8202 37.688
1066 2 0.0 10.9301 35.879 38.2358
1686 2 0.0 16.2675 37.0962 37.5018
1697 2 0.0 12.1769 36.265 37.0461
938 1 0.0 17.2879 33.832 37.4435
1033 2 0.0 11.0476 34.1943 36.6022
2157 3 0.0 14.2698 37.6998 36.1078
877 1 0.0 15.174 38.6354 36.0035
1148 2 0.0 13.0101 32.4381 39.1453
2190 3 0.0 21.2707 17.3679 14.0455
2195 3 0.0 23.455 13.3655 10.6974
962 1 0.0 18.8162 14.6138 11.8702
2188 3 0.0 19.4892 13.8676 12.6867
2196 3 0.0 24.5834 13.6669 12.8617
981 1 0.0 22.8656 12.0541 12.713
1758 2 0.0 20.775 13.2125 10.6345
980 1 0.0 21.8548 11.3857 11.9178
1786 2 0.0 21.5215 11.7185 10.9685
2116 3 0.0 23.1825 16.923 11.0184
984 1 0.0 23.638 13.1846 12.1234
982 1 0.0 23.3058 11.5396 13.9832
2187 3 0.0 17.7617 15.5783 12.103
1788 2 0.0 24.3913 15.2081 10.8999
1405 2 0.0 18.2355 10.7972 14.1001
304 1 0.0 23.569 14.2368 17.646
2007 3 0.0 19.9774 11.9629 14.7759
301 1 0.0 21.7836 13.2533 16.2446
2008 3 0.0 18.0624 13.172 16.4642
312 1 0.0 23.76 15.161 16.6513
1423 2 0.0 19.5945 14.4805 16.9539
513 1 0.0 18.6909 11.1823 15.0057
964 1 0.0 18.5284 16.5093 14.2905
1261 2 0.0 23.2687 15.8314 14.7157
300 1 0.0 20.7769 12.1281 15.9355
302 1 0.0 22.1243 14.1424 15.1993
542 1 0.0 19.0388 15.21 17.5663
1929 3 0.0 24.9312 17.3173 15.8877
308 1 0.0 23.0144 15.1751 15.4647
1255 2 0.0 21.6236 14.008 14.2288
303 1 0.0 22.4946 13.3158 17.4333
1770 2 0.0 19.3712 15.9096 14.328
1927 3 0.0 20.8486 11.3826 16.9828
1789 2 0.0 24.1783 11.9325 14.4551
1771 2 0.0 18.3017 16.5878 15.3261
313 1 0.0 24.8758 16.2568 16.7917
1796 2 0.0 21.1885 16.0019 20.4869
1256 2 0.0 22.2276 12.605 18.1877
977 1 0.0 18.4307 13.1631 20.2052
541 1 0.0 19.6587 16.2476 18.2788
1257 2 0.0 24.1796 14.2206 18.5158
1798 2 0.0 24.9713 15.9242 20.5054
1426 2 0.0 20.7317 16.3701 18.2165
1783 2 0.0 19.6535 11.9781 18.8977
976 1 0.0 18.6456 12.0781 19.3058
536 1 0.0 18.8286 17.1951 18.9565
990 1 0.0 19.6629 13.9599 20.607
2194 3 0.0 20.7505 13.5332 20.0464
2083 3 0.0 24.5408 11.8669 20.0555
1556 2 0.0 24.6537 11.1779 17.8862
1551 2 0.0 24.6897 10.9635 21.9684
1554 2 0.0 22.4891 11.1745 22.8723
992 1 0.0 20.793 15.8381 21.5283
2199 3 0.0 23.299 15.6223 22.115
993 1 0.0 21.8838 15.1407 22.3705
1794 2 0.0 21.742 15.2816 23.4545
1793 2 0.0 21.7766 14.0691 22.2435
2202 3 0.0 24.0399 14.1336 23.961
994 1 0.0 24.2321 14.9607 22.9821
1553 2 0.0 22.0266 12.1592 21.5186
690 1 0.0 22.6745 11.3548 21.8073
1557 2 0.0 24.3895 12.7184 21.929
1795 2 0.0 20.6105 16.8523 21.9036
687 1 0.0 24.1425 11.7165 21.4979
2198 3 0.0 19.4606 15.1103 21.3943
314 1 0.0 24.6468 12.0297 28.2181
1424 2 0.0 22.3201 15.8908 25.2577
537 1 0.0 21.4716 17.5225 26.4461
539 1 0.0 22.8254 15.7905 27.3504
1263 2 0.0 22.4952 12.0556 28.3554
1425 2 0.0 23.2877 14.8367 27.1368
540 1 0.0 22.2375 16.3539 26.251
315 1 0.0 23.3926 11.4266 28.2411
1264 2 0.0 24.7637 13.1374 28.1153
1606 2 0.0 24.2109 14.8575 31.9852
742 1 0.0 24.4976 11.2897 31.8506
741 1 0.0 23.2005 10.9857 32.2496
2114 3 0.0 22.9303 16.2746 31.0226
538 1 0.0 22.6282 16.2968 28.6638
1698 2 0.0 20.9296 17.2212 31.6338
2020 3 0.0 23.6914 14.3242 29.6125
760 1 0.0 23.1977 15.4915 29.8211
543 1 0.0 21.9102 17.4949 28.8554
1590 2 0.0 24.9251 10.7911 30.9395
1700 2 0.0 20.0575 15.7942 31.9867
761 1 0.0 23.6042 15.7672 32.2091
1029 2 0.0 18.1274 12.2065 28.6508
747 1 0.0 24.7075 12.7411 33.8129
2162 3 0.0 21.5373 14.6099 35.138
882 1 0.0 21.2797 10.9168 33.7982
1701 2 0.0 19.1344 11.8663 35.4343
2160 3 0.0 21.1138 11.1991 35.2244
881 1 0.0 20.1668 16.8187 32.3086
1699 2 0.0 23.0273 12.7296 35.1215
879 1 0.0 23.4393 12.3443 34.2392
883 1 0.0 19.734 10.9155 35.7153
1703 2 0.0 21.6385 16.4829 33.8424
886 1 0.0 20.4379 15.2392 35.4508
880 1 0.0 22.6532 11.4368 33.4689
885 1 0.0 20.6849 16.8809 33.7648
763 1 0.0 24.5216 16.781 32.9086
2161 3 0.0 19.7635 16.317 34.7917
1605 2 0.0 22.7585 15.4817 32.9275
2167 3 0.0 18.833 17.4757 32.2651
900 1 0.0 18.8486 15.6789 37.2936
1705 2 0.0 20.4273 11.2433 37.6091
887 1 0.0 19.8793 14.8698 36.7642
2181 3 0.0 18.4117 10.9516 37.9484
2118 3 0.0 24.7074 17.3952 38.1689
884 1 0.0 19.6574 10.5687 37.2046
1753 2 0.0 21.3832 13.4005 37.1434
947 1 0.0 20.2257 13.8746 38.9824
960 1 0.0 18.4405 15.5178 38.6099
1713 2 0.0 18.3363 16.4018 36.659
946 1 0.0 20.5545 13.9103 37.6234
979 1 0.0 24.3372 14.4353 39.206
961 1 0.0 19.1424 14.6784 39.4819
1787 2 0.0 23.8572 14.9414 38.3698
764 1 0.0 23.4758 17.2802 38.8685
1604 2 0.0 20.9172 16.8292 39.3521
762 1 0.0 21.0537 17.6021 38.5711
1610 2 0.0 24.5982 17.1786 37.2319
966 1 0.0 19.0746 20.6729 11.0566
971 1 0.0 21.571 19.5235 12.0077
958 1 0.0 19.1041 19.7488 12.1278
1712 2 0.0 18.1273 21.1138 10.7527
1890 3 0.0 23.8171 24.0536 10.8509
970 1 0.0 21.5998 20.4022 10.9019
959 1 0.0 20.3229 19.1153 12.5159
1767 2 0.0 18.2256 19.5557 12.6729
1001 2 0.0 20.6423 21.6068 13.752
1777 2 0.0 22.5256 19.1222 12.4279
1168 2 0.0 21.4201 24.0081 10.5157
1937 3 0.0 23.0138 20.6926 13.9317
965 1 0.0 20.2749 18.0502 13.5817
1158 2 0.0 24.5494 22.2117 13.7358
1174 2 0.0 23.6798 24.6308 13.6317
2189 3 0.0 18.8621 17.8806 13.9024
1776 2 0.0 22.5102 20.7679 10.505
1305 2 0.0 20.0175 23.7533 16.4611
1 1 0.0 18.6073 20.9753 16.4071
311 1 0.0 19.5111 20.1539 17.1362
1928 3 0.0 23.5118 19.7464 16.165
1951 3 0.0 22.0288 23.8235 17.0749
3 1 0.0 20.363 21.2449 14.7405
309 1 0.0 20.7915 19.8131 16.6795
305 1 0.0 24.9783 19.7155 15.8076
307 1 0.0 22.7263 20.3703 15.1589
1303 2 0.0 18.2925 23.62 16.9495
1289 2 0.0 24.17 23.2019 17.6156
310 1 0.0 21.24 20.4532 15.5097
1002 2 0.0 18.406 22.2063 14.6319
1262 2 0.0 21.5543 19.1699 17.2225
2 1 0.0 19.0707 21.5691 15.1853
361 1 0.0 19.1225 24.3183 16.7805
212 1 0.0 24.4376 24.313 14.3795
1179 2 0.0 23.9161 24.2083 15.3231
1888 3 0.0 20.987 24.946 14.7168
331 1 0.0 22.6198 23.2476 20.6311
1452 2 0.0 23.3105 20.7521 19.957
1615 2 0.0 20.9916 20.4154 19.2982
2110 3 0.0 18.7654 19.1456 20.5603
1020 2 0.0 23.2841 19.2184 19.0877
336 1 0.0 22.8191 23.4479 19.2325
535 1 0.0 19.4053 18.2988 19.8061
582 1 0.0 22.9016 19.6973 20.0066
334 1 0.0 21.6841 23.848 18.3291
343 1 0.0 24.9213 22.6097 20.9073
1950 3 0.0 20.4497 24.1912 18.9407
580 1 0.0 21.37 19.5941 19.9467
2017 3 0.0 20.7811 18.3001 19.4623
1456 2 0.0 21.0014 19.9392 20.8816
345 1 0.0 24.1105 23.1773 18.7171
1279 2 0.0 21.6829 23.5201 21.0504
1422 2 0.0 19.1923 19.6864 18.0715
2032 3 0.0 23.5626 18.845 21.0912
18 1 0.0 24.9604 19.002 20.9087
1266 2 0.0 21.2554 19.9601 23.6872
1458 2 0.0 17.9682 22.3516 23.952
1285 2 0.0 23.5986 23.0064 22.5284
1291 2 0.0 23.0916 21.5806 24.2793
1280 2 0.0 20.4627 21.4027 24.4037
2045 3 0.0 21.5916 24.6343 22.9009
574 1 0.0 18.1476 24.7864 22.8005
1455 2 0.0 23.8707 18.068 23.265
1483 2 0.0 23.6588 24.3081 24.5451
2030 3 0.0 17.9994 23.9083 21.8819
573 1 0.0 21.1329 20.5592 24.6159
577 1 0.0 18.2861 24.475 24.2519
576 1 0.0 18.2117 23.0931 24.6758
340 1 0.0 23.6928 22.9858 21.4733
572 1 0.0 24.9532 18.0448 23.3296
2016 3 0.0 21.3356 17.7485 24.0675
534 1 0.0 21.0866 18.2571 25.2246
544 1 0.0 21.4093 18.1254 27.7454
575 1 0.0 18.6579 22.796 25.9138
586 1 0.0 22.1424 24.4781 27.2293
2034 3 0.0 21.7425 24.1079 26.0385
1466 2 0.0 23.0487 21.8403 27.6272
1453 2 0.0 21.0381 19.147 27.7802
1432 2 0.0 23.808 18.2106 27.5762
2029 3 0.0 20.5315 19.578 25.5447
1465 2 0.0 21.3852 22.0259 27.7487
2018 3 0.0 23.3494 20.0318 25.6916
1457 2 0.0 18.8768 21.7633 26.1936
548 1 0.0 24.7895 18.5431 27.8741
773 1 0.0 19.016 23.8479 26.8301
2035 3 0.0 22.5393 23.7772 28.3553
587 1 0.0 22.2983 22.2302 28.2573
546 1 0.0 24.4678 20.5967 26.3939
775 1 0.0 19.4225 23.549 28.2651
1935 3 0.0 24.9673 21.7973 26.3421
1461 2 0.0 22.3303 21.8503 25.8861
584 1 0.0 22.4783 21.0978 25.1012
1620 2 0.0 20.4667 23.3611 30.4986
1467 2 0.0 21.9515 20.4453 29.404
2119 3 0.0 19.8448 24.6632 29.0565
2122 3 0.0 22.6724 24.7587 31.1657
776 1 0.0 20.1469 24.3713 30.5043
780 1 0.0 24.9228 24.1985 29.8935
1468 2 0.0 21.3059 21.9232 29.9441
889 1 0.0 18.1459 21.0197 31.8813
1706 2 0.0 18.9717 21.3695 31.2574
590 1 0.0 24.2276 20.7109 30.6383
588 1 0.0 22.2057 21.4953 29.5681
2036 3 0.0 23.2832 21.7666 30.5519
2155 3 0.0 20.0861 19.1147 30.938
1617 2 0.0 19.2804 24.357 31.165
1622 2 0.0 23.9944 23.635 29.8224
2037 3 0.0 24.3457 19.4989 30.1637
1429 2 0.0 22.007 18.0421 29.8069
892 1 0.0 19.0169 18.7244 31.5412
896 1 0.0 17.9642 19.635 32.1584
1623 2 0.0 24.3652 22.9975 32.1506
2121 3 0.0 19.2728 22.3352 28.6571
781 1 0.0 23.0782 20.5584 33.6046
765 1 0.0 24.8186 18.8436 34.3092
916 1 0.0 22.2385 24.0859 34.8708
1618 2 0.0 21.7138 22.1318 33.052
917 1 0.0 22.8117 22.701 34.7421
915 1 0.0 24.5801 21.2175 35.3707
918 1 0.0 23.9623 22.4603 35.5106
778 1 0.0 24.1608 20.2131 34.4586
2168 3 0.0 19.5796 20.986 35.4546
779 1 0.0 22.4675 21.7832 33.6864
2115 3 0.0 24.0302 18.1496 33.3302
2172 3 0.0 20.9754 24.3004 34.2133
1611 2 0.0 22.7887 19.8028 32.8783
1721 2 0.0 19.0198 22.7885 34.5526
904 1 0.0 18.7628 22.1765 35.4181
1715 2 0.0 21.5673 19.8085 35.3562
2174 3 0.0 22.9584 24.99 35.4451
1714 2 0.0 20.8971 18.0081 34.0201
1727 2 0.0 20.1007 23.4503 36.6402
758 1 0.0 19.9814 18.3254 38.0442
893 1 0.0 19.0426 20.0181 36.4203
1720 2 0.0 18.4312 23.9268 36.6717
766 1 0.0 22.318 17.8404 38.0276
1716 2 0.0 23.5638 18.8091 36.5192
902 1 0.0 22.5356 18.6147 36.851
2173 3 0.0 21.512 22.1567 37.7238
898 1 0.0 20.15 19.1283 36.8771
905 1 0.0 19.1095 23.0395 36.6704
2170 3 0.0 19.058 22.1901 37.856
912 1 0.0 20.4012 21.8149 38.2663
1731 2 0.0 24.3161 23.2163 36.1179
901 1 0.0 21.4243 19.2576 36.2749
969 1 0.0 20.3416 20.8758 39.4673
2163 3 0.0 17.9227 19.9172 37.0255
1602 2 0.0 18.9709 18.2198 38.4525
1169 2 0.0 19.2648 24.8269 38.7462
201 1 0.0 21.3766 24.9764 39.0251
1212 2 0.0 20.2132 31.0217 11.6465
1211 2 0.0 21.7191 30.7751 12.586
1171 2 0.0 21.0756 27.6768 10.7927
1170 2 0.0 21.6305 26.1719 12.7475
207 1 0.0 20.3444 27.5094 11.5768
203 1 0.0 19.6184 26.3755 13.6533
251 1 0.0 19.1076 28.1585 11.4334
1345 2 0.0 19.6682 29.6911 13.6175
204 1 0.0 20.6043 26.6245 12.6568
205 1 0.0 18.3403 26.9347 13.3697
419 1 0.0 19.8862 30.7731 13.7487
420 1 0.0 20.7462 31.29 12.5691
210 1 0.0 18.0614 27.9003 12.4125
1894 3 0.0 23.8751 27.0409 13.6956
1347 2 0.0 18.9137 31.3159 13.6504
1975 3 0.0 20.4601 30.9353 15.1061
417 1 0.0 20.1554 32.2518 15.603
1979 3 0.0 24.7536 30.4664 15.4847
1312 2 0.0 24.7683 26.0962 16.8543
1308 2 0.0 22.5002 27.1003 16.7922
206 1 0.0 19.8309 25.5254 14.8899
1344 2 0.0 22.185 30.863 16.8914
415 1 0.0 21.8099 31.6832 17.4984
1952 3 0.0 18.7044 25.3036 15.7476
364 1 0.0 23.1087 27.1379 17.7364
1454 2 0.0 18.2885 26.1829 20.7082
363 1 0.0 23.3798 27.7884 20.129
421 1 0.0 20.0542 31.2793 21.2265
365 1 0.0 22.7061 27.847 18.8793
1953 3 0.0 21.3435 29.3984 20.0323
1003 2 0.0 19.2006 29.4815 20.3495
1304 2 0.0 20.6577 26.7106 19.9848
367 1 0.0 21.437 28.6235 18.8332
369 1 0.0 20.0468 30.1518 20.1504
1306 2 0.0 18.6166 25.3609 18.6312
1343 2 0.0 19.7751 30.4843 19.1479
416 1 0.0 22.46 32.1274 18.6674
366 1 0.0 24.5794 27.1029 20.1811
1309 2 0.0 22.9642 28.2855 20.9705
1346 2 0.0 23.3348 31.5984 19.0507
1307 2 0.0 20.0934 25.9165 17.8555
368 1 0.0 24.3313 26.5281 17.779