# LAMMPS data file written by Ovito Basic 3.0.0-dev791
2592 atoms
5 atom types
0.0 33.9819984436 xlo xhi
0.0 33.9819984436 ylo yhi
0.0 33.9819984436 zlo zhi

Atoms  # charge

1 1 0.0 6.40645647 0.134228885 10.584543228
2 1 0.0 6.40645647 0.134228885 27.575544357
3 1 0.0 6.40645647 17.125228882 10.584543228
4 1 0.0 6.40645647 17.125228882 27.575544357
5 1 0.0 23.397457123 0.134228885 10.584543228
6 1 0.0 23.397457123 0.134228885 27.575544357
7 1 0.0 23.397457123 17.125228882 10.584543228
8 1 0.0 23.397457123 17.125228882 27.575544357
9 1 0.0 6.261353493 15.277287483 11.681311607
10 1 0.0 6.261353493 15.277287483 28.672311783
11 1 0.0 6.261353493 32.268287659 11.681311607
12 1 0.0 6.261353493 32.268287659 28.672311783
13 1 0.0 23.252351761 15.277287483 11.681311607
14 1 0.0 23.252351761 15.277287483 28.672311783
15 1 0.0 23.252351761 32.268287659 11.681311607
16 1 0.0 23.252351761 32.268287659 28.672311783
17 1 0.0 6.900044918 1.452730417 10.090954781
18 1 0.0 6.900044918 1.452730417 27.081953049
19 1 0.0 6.900044918 18.443729401 10.090954781
20 1 0.0 6.900044918 18.443729401 27.081953049
21 1 0.0 23.891044617 1.452730417 10.090954781
22 1 0.0 23.891044617 1.452730417 27.081953049
23 1 0.0 23.891044617 18.443729401 10.090954781
24 1 0.0 23.891044617 18.443729401 27.081953049
25 1 0.0 0.134228885 10.584543228 6.40645647
26 1 0.0 0.134228885 10.584543228 23.397457123
27 1 0.0 0.134228885 27.575544357 6.40645647
28 1 0.0 0.134228885 27.575544357 23.397457123
29 1 0.0 17.125228882 10.584543228 6.40645647
30 1 0.0 17.125228882 10.584543228 23.397457123
31 1 0.0 17.125228882 27.575544357 6.40645647
32 1 0.0 17.125228882 27.575544357 23.397457123
33 1 0.0 15.277287483 10.729645729 5.309687138
34 1 0.0 15.277287483 10.729645729 22.300685883
35 1 0.0 15.277287483 27.720645905 5.309687138
36 1 0.0 15.277287483 27.720645905 22.300685883
37 1 0.0 32.268287659 10.729645729 5.309687138
38 1 0.0 32.268287659 10.729645729 22.300685883
39 1 0.0 32.268287659 27.720645905 5.309687138
40 1 0.0 32.268287659 27.720645905 22.300685883
41 1 0.0 1.452730417 10.090954781 6.900044918
42 1 0.0 1.452730417 10.090954781 23.891044617
43 1 0.0 1.452730417 27.081953049 6.900044918
44 1 0.0 1.452730417 27.081953049 23.891044617
45 1 0.0 18.443729401 10.090954781 6.900044918
46 1 0.0 18.443729401 10.090954781 23.891044617
47 1 0.0 18.443729401 27.081953049 6.900044918
48 1 0.0 18.443729401 27.081953049 23.891044617
49 1 0.0 10.584543228 16.856769562 10.584543228
50 1 0.0 10.584543228 16.856769562 27.575544357
51 1 0.0 10.584543228 33.847770691 10.584543228
52 1 0.0 10.584543228 33.847770691 27.575544357
53 1 0.0 27.575544357 16.856769562 10.584543228
54 1 0.0 27.575544357 16.856769562 27.575544357
55 1 0.0 27.575544357 33.847770691 10.584543228
56 1 0.0 27.575544357 33.847770691 27.575544357
57 1 0.0 10.729645729 1.713712215 11.681311607
58 1 0.0 10.729645729 1.713712215 28.672311783
59 1 0.0 10.729645729 18.704711914 11.681311607
60 1 0.0 10.729645729 18.704711914 28.672311783
61 1 0.0 27.720645905 1.713712215 11.681311607
62 1 0.0 27.720645905 1.713712215 28.672311783
63 1 0.0 27.720645905 18.704711914 11.681311607
64 1 0.0 27.720645905 18.704711914 28.672311783
65 1 0.0 10.090954781 15.538269043 10.090954781
66 1 0.0 10.090954781 15.538269043 27.081953049
67 1 0.0 10.090954781 32.529266357 10.090954781
68 1 0.0 10.090954781 32.529266357 27.081953049
69 1 0.0 27.081953049 15.538269043 10.090954781
70 1 0.0 27.081953049 15.538269043 27.081953049
71 1 0.0 27.081953049 32.529266357 10.090954781
72 1 0.0 27.081953049 32.529266357 27.081953049
73 1 0.0 16.856769562 6.40645647 6.40645647
74 1 0.0 16.856769562 6.40645647 23.397457123
75 1 0.0 16.856769562 23.397457123 6.40645647
76 1 0.0 16.856769562 23.397457123 23.397457123
77 1 0.0 33.847770691 6.40645647 6.40645647
78 1 0.0 33.847770691 6.40645647 23.397457123
79 1 0.0 33.847770691 23.397457123 6.40645647
80 1 0.0 33.847770691 23.397457123 23.397457123
81 1 0.0 1.713712215 6.261353493 5.309687138
82 1 0.0 1.713712215 6.261353493 22.300685883
83 1 0.0 1.713712215 23.252351761 5.309687138
84 1 0.0 1.713712215 23.252351761 22.300685883
85 1 0.0 18.704711914 6.261353493 5.309687138
86 1 0.0 18.704711914 6.261353493 22.300685883
87 1 0.0 18.704711914 23.252351761 5.309687138
88 1 0.0 18.704711914 23.252351761 22.300685883
89 1 0.0 15.538269043 6.900044918 6.900044918
90 1 0.0 15.538269043 6.900044918 23.891044617
91 1 0.0 15.538269043 23.891044617 6.900044918
92 1 0.0 15.538269043 23.891044617 23.891044617
93 1 0.0 32.529266357 6.900044918 6.900044918
94 1 0.0 32.529266357 6.900044918 23.891044617
95 1 0.0 32.529266357 23.891044617 6.900044918
96 1 0.0 32.529266357 23.891044617 23.891044617
97 1 0.0 6.40645647 16.856769562 6.40645647
98 1 0.0 6.40645647 16.856769562 23.397457123
99 1 0.0 6.40645647 33.847770691 6.40645647
100 1 0.0 6.40645647 33.847770691 23.397457123
101 1 0.0 23.397457123 16.856769562 6.40645647
102 1 0.0 23.397457123 16.856769562 23.397457123
103 1 0.0 23.397457123 33.847770691 6.40645647
104 1 0.0 23.397457123 33.847770691 23.397457123
105 1 0.0 6.261353493 1.713712215 5.309687138
106 1 0.0 6.261353493 1.713712215 22.300685883
107 1 0.0 6.261353493 18.704711914 5.309687138
108 1 0.0 6.261353493 18.704711914 22.300685883
109 1 0.0 23.252351761 1.713712215 5.309687138
110 1 0.0 23.252351761 1.713712215 22.300685883
111 1 0.0 23.252351761 18.704711914 5.309687138
112 1 0.0 23.252351761 18.704711914 22.300685883
113 1 0.0 6.900044918 15.538269043 6.900044918
114 1 0.0 6.900044918 15.538269043 23.891044617
115 1 0.0 6.900044918 32.529266357 6.900044918
116 1 0.0 6.900044918 32.529266357 23.891044617
117 1 0.0 23.891044617 15.538269043 6.900044918
118 1 0.0 23.891044617 15.538269043 23.891044617
119 1 0.0 23.891044617 32.529266357 6.900044918
120 1 0.0 23.891044617 32.529266357 23.891044617
121 1 0.0 16.856769562 10.584543228 10.584543228
122 1 0.0 16.856769562 10.584543228 27.575544357
123 1 0.0 16.856769562 27.575544357 10.584543228
124 1 0.0 16.856769562 27.575544357 27.575544357
125 1 0.0 33.847770691 10.584543228 10.584543228
126 1 0.0 33.847770691 10.584543228 27.575544357
127 1 0.0 33.847770691 27.575544357 10.584543228
128 1 0.0 33.847770691 27.575544357 27.575544357
129 1 0.0 1.713712215 10.729645729 11.681311607
130 1 0.0 1.713712215 10.729645729 28.672311783
131 1 0.0 1.713712215 27.720645905 11.681311607
132 1 0.0 1.713712215 27.720645905 28.672311783
133 1 0.0 18.704711914 10.729645729 11.681311607
134 1 0.0 18.704711914 10.729645729 28.672311783
135 1 0.0 18.704711914 27.720645905 11.681311607
136 1 0.0 18.704711914 27.720645905 28.672311783
137 1 0.0 15.538269043 10.090954781 10.090954781
138 1 0.0 15.538269043 10.090954781 27.081953049
139 1 0.0 15.538269043 27.081953049 10.090954781
140 1 0.0 15.538269043 27.081953049 27.081953049
141 1 0.0 32.529266357 10.090954781 10.090954781
142 1 0.0 32.529266357 10.090954781 27.081953049
143 1 0.0 32.529266357 27.081953049 10.090954781
144 1 0.0 32.529266357 27.081953049 27.081953049
145 1 0.0 10.584543228 0.134228885 6.40645647
146 1 0.0 10.584543228 0.134228885 23.397457123
147 1 0.0 10.584543228 17.125228882 6.40645647
148 1 0.0 10.584543228 17.125228882 23.397457123
149 1 0.0 27.575544357 0.134228885 6.40645647
150 1 0.0 27.575544357 0.134228885 23.397457123
151 1 0.0 27.575544357 17.125228882 6.40645647
152 1 0.0 27.575544357 17.125228882 23.397457123
153 1 0.0 10.729645729 15.277287483 5.309687138
154 1 0.0 10.729645729 15.277287483 22.300685883
155 1 0.0 10.729645729 32.268287659 5.309687138
156 1 0.0 10.729645729 32.268287659 22.300685883
157 1 0.0 27.720645905 15.277287483 5.309687138
158 1 0.0 27.720645905 15.277287483 22.300685883
159 1 0.0 27.720645905 32.268287659 5.309687138
160 1 0.0 27.720645905 32.268287659 22.300685883
161 1 0.0 10.090954781 1.452730417 6.900044918
162 1 0.0 10.090954781 1.452730417 23.891044617
163 1 0.0 10.090954781 18.443729401 6.900044918
164 1 0.0 10.090954781 18.443729401 23.891044617
165 1 0.0 27.081953049 1.452730417 6.900044918
166 1 0.0 27.081953049 1.452730417 23.891044617
167 1 0.0 27.081953049 18.443729401 6.900044918
168 1 0.0 27.081953049 18.443729401 23.891044617
169 1 0.0 0.134228885 6.40645647 10.584543228
170 1 0.0 0.134228885 6.40645647 27.575544357
171 1 0.0 0.134228885 23.397457123 10.584543228
172 1 0.0 0.134228885 23.397457123 27.575544357
173 1 0.0 17.125228882 6.40645647 10.584543228
174 1 0.0 17.125228882 6.40645647 27.575544357
175 1 0.0 17.125228882 23.397457123 10.584543228
176 1 0.0 17.125228882 23.397457123 27.575544357
177 1 0.0 15.277287483 6.261353493 11.681311607
178 1 0.0 15.277287483 6.261353493 28.672311783
179 1 0.0 15.277287483 23.252351761 11.681311607
180 1 0.0 15.277287483 23.252351761 28.672311783
181 1 0.0 32.268287659 6.261353493 11.681311607
182 1 0.0 32.268287659 6.261353493 28.672311783
183 1 0.0 32.268287659 23.252351761 11.681311607
184 1 0.0 32.268287659 23.252351761 28.672311783
185 1 0.0 1.452730417 6.900044918 10.090954781
186 1 0.0 1.452730417 6.900044918 27.081953049
187 1 0.0 1.452730417 23.891044617 10.090954781
188 1 0.0 1.452730417 23.891044617 27.081953049
189 1 0.0 18.443729401 6.900044918 10.090954781
190 1 0.0 18.443729401 6.900044918 27.081953049
191 1 0.0 18.443729401 23.891044617 10.090954781
192 1 0.0 18.443729401 23.891044617 27.081953049
193 1 0.0 10.584543228 6.40645647 0.134228885
194 1 0.0 10.584543228 6.40645647 17.125228882
195 1 0.0 10.584543228 23.397457123 0.134228885
196 1 0.0 10.584543228 23.397457123 17.125228882
197 1 0.0 27.575544357 6.40645647 0.134228885
198 1 0.0 27.575544357 6.40645647 17.125228882
199 1 0.0 27.575544357 23.397457123 0.134228885
200 1 0.0 27.575544357 23.397457123 17.125228882
201 1 0.0 11.681311607 6.261353493 15.277287483
202 1 0.0 11.681311607 6.261353493 32.268287659
203 1 0.0 11.681311607 23.252351761 15.277287483
204 1 0.0 11.681311607 23.252351761 32.268287659
205 1 0.0 28.672311783 6.261353493 15.277287483
206 1 0.0 28.672311783 6.261353493 32.268287659
207 1 0.0 28.672311783 23.252351761 15.277287483
208 1 0.0 28.672311783 23.252351761 32.268287659
209 1 0.0 10.090954781 6.900044918 1.452730417
210 1 0.0 10.090954781 6.900044918 18.443729401
211 1 0.0 10.090954781 23.891044617 1.452730417
212 1 0.0 10.090954781 23.891044617 18.443729401
213 1 0.0 27.081953049 6.900044918 1.452730417
214 1 0.0 27.081953049 6.900044918 18.443729401
215 1 0.0 27.081953049 23.891044617 1.452730417
216 1 0.0 27.081953049 23.891044617 18.443729401
217 1 0.0 6.40645647 6.40645647 16.856769562
218 1 0.0 6.40645647 6.40645647 33.847770691
219 1 0.0 6.40645647 23.397457123 16.856769562
220 1 0.0 6.40645647 23.397457123 33.847770691
221 1 0.0 23.397457123 6.40645647 16.856769562
222 1 0.0 23.397457123 6.40645647 33.847770691
223 1 0.0 23.397457123 23.397457123 16.856769562
224 1 0.0 23.397457123 23.397457123 33.847770691
225 1 0.0 6.261353493 5.309687138 1.713712215
226 1 0.0 6.261353493 5.309687138 18.704711914
227 1 0.0 6.261353493 22.300685883 1.713712215
228 1 0.0 6.261353493 22.300685883 18.704711914
229 1 0.0 23.252351761 5.309687138 1.713712215
230 1 0.0 23.252351761 5.309687138 18.704711914
231 1 0.0 23.252351761 22.300685883 1.713712215
232 1 0.0 23.252351761 22.300685883 18.704711914
233 1 0.0 6.900044918 6.900044918 15.538269043
234 1 0.0 6.900044918 6.900044918 32.529266357
235 1 0.0 6.900044918 23.891044617 15.538269043
236 1 0.0 6.900044918 23.891044617 32.529266357
237 1 0.0 23.891044617 6.900044918 15.538269043
238 1 0.0 23.891044617 6.900044918 32.529266357
239 1 0.0 23.891044617 23.891044617 15.538269043
240 1 0.0 23.891044617 23.891044617 32.529266357
241 1 0.0 6.40645647 10.584543228 0.134228885
242 1 0.0 6.40645647 10.584543228 17.125228882
243 1 0.0 6.40645647 27.575544357 0.134228885
244 1 0.0 6.40645647 27.575544357 17.125228882
245 1 0.0 23.397457123 10.584543228 0.134228885
246 1 0.0 23.397457123 10.584543228 17.125228882
247 1 0.0 23.397457123 27.575544357 0.134228885
248 1 0.0 23.397457123 27.575544357 17.125228882
249 1 0.0 5.309687138 10.729645729 15.277287483
250 1 0.0 5.309687138 10.729645729 32.268287659
251 1 0.0 5.309687138 27.720645905 15.277287483
252 1 0.0 5.309687138 27.720645905 32.268287659
253 1 0.0 22.300685883 10.729645729 15.277287483
254 1 0.0 22.300685883 10.729645729 32.268287659
255 1 0.0 22.300685883 27.720645905 15.277287483
256 1 0.0 22.300685883 27.720645905 32.268287659
257 1 0.0 6.900044918 10.090954781 1.452730417
258 1 0.0 6.900044918 10.090954781 18.443729401
259 1 0.0 6.900044918 27.081953049 1.452730417
260 1 0.0 6.900044918 27.081953049 18.443729401
261 1 0.0 23.891044617 10.090954781 1.452730417
262 1 0.0 23.891044617 10.090954781 18.443729401
263 1 0.0 23.891044617 27.081953049 1.452730417
264 1 0.0 23.891044617 27.081953049 18.443729401
265 1 0.0 10.584543228 10.584543228 16.856769562
266 1 0.0 10.584543228 10.584543228 33.847770691
267 1 0.0 10.584543228 27.575544357 16.856769562
268 1 0.0 10.584543228 27.575544357 33.847770691
269 1 0.0 27.575544357 10.584543228 16.856769562
270 1 0.0 27.575544357 10.584543228 33.847770691
271 1 0.0 27.575544357 27.575544357 16.856769562
272 1 0.0 27.575544357 27.575544357 33.847770691
273 1 0.0 10.729645729 11.681311607 1.713712215
274 1 0.0 10.729645729 11.681311607 18.704711914
275 1 0.0 10.729645729 28.672311783 1.713712215
276 1 0.0 10.729645729 28.672311783 18.704711914
277 1 0.0 27.720645905 11.681311607 1.713712215
278 1 0.0 27.720645905 11.681311607 18.704711914
279 1 0.0 27.720645905 28.672311783 1.713712215
280 1 0.0 27.720645905 28.672311783 18.704711914
281 1 0.0 10.090954781 10.090954781 15.538269043
282 1 0.0 10.090954781 10.090954781 32.529266357
283 1 0.0 10.090954781 27.081953049 15.538269043
284 1 0.0 10.090954781 27.081953049 32.529266357
285 1 0.0 27.081953049 10.090954781 15.538269043
286 1 0.0 27.081953049 10.090954781 32.529266357
287 1 0.0 27.081953049 27.081953049 15.538269043
288 1 0.0 27.081953049 27.081953049 32.529266357
289 1 0.0 11.681311607 10.729645729 1.713712215
290 1 0.0 11.681311607 10.729645729 18.704711914
291 1 0.0 11.681311607 27.720645905 1.713712215
292 1 0.0 11.681311607 27.720645905 18.704711914
293 1 0.0 28.672311783 10.729645729 1.713712215
294 1 0.0 28.672311783 10.729645729 18.704711914
295 1 0.0 28.672311783 27.720645905 1.713712215
296 1 0.0 28.672311783 27.720645905 18.704711914
297 1 0.0 10.729645729 5.309687138 15.277287483
298 1 0.0 10.729645729 5.309687138 32.268287659
299 1 0.0 10.729645729 22.300685883 15.277287483
300 1 0.0 10.729645729 22.300685883 32.268287659
301 1 0.0 27.720645905 5.309687138 15.277287483
302 1 0.0 27.720645905 5.309687138 32.268287659
303 1 0.0 27.720645905 22.300685883 15.277287483
304 1 0.0 27.720645905 22.300685883 32.268287659
305 1 0.0 5.309687138 6.261353493 1.713712215
306 1 0.0 5.309687138 6.261353493 18.704711914
307 1 0.0 5.309687138 23.252351761 1.713712215
308 1 0.0 5.309687138 23.252351761 18.704711914
309 1 0.0 22.300685883 6.261353493 1.713712215
310 1 0.0 22.300685883 6.261353493 18.704711914
311 1 0.0 22.300685883 23.252351761 1.713712215
312 1 0.0 22.300685883 23.252351761 18.704711914
313 1 0.0 6.261353493 11.681311607 15.277287483
314 1 0.0 6.261353493 11.681311607 32.268287659
315 1 0.0 6.261353493 28.672311783 15.277287483
316 1 0.0 6.261353493 28.672311783 32.268287659
317 1 0.0 23.252351761 11.681311607 15.277287483
318 1 0.0 23.252351761 11.681311607 32.268287659
319 1 0.0 23.252351761 28.672311783 15.277287483
320 1 0.0 23.252351761 28.672311783 32.268287659
321 1 0.0 15.277287483 11.681311607 6.261353493
322 1 0.0 15.277287483 11.681311607 23.252351761
323 1 0.0 15.277287483 28.672311783 6.261353493
324 1 0.0 15.277287483 28.672311783 23.252351761
325 1 0.0 32.268287659 11.681311607 6.261353493
326 1 0.0 32.268287659 11.681311607 23.252351761
327 1 0.0 32.268287659 28.672311783 6.261353493
328 1 0.0 32.268287659 28.672311783 23.252351761
329 1 0.0 15.277287483 5.309687138 10.729645729
330 1 0.0 15.277287483 5.309687138 27.720645905
331 1 0.0 15.277287483 22.300685883 10.729645729
332 1 0.0 15.277287483 22.300685883 27.720645905
333 1 0.0 32.268287659 5.309687138 10.729645729
334 1 0.0 32.268287659 5.309687138 27.720645905
335 1 0.0 32.268287659 22.300685883 10.729645729
336 1 0.0 32.268287659 22.300685883 27.720645905
337 1 0.0 5.309687138 1.713712215 6.261353493
338 1 0.0 5.309687138 1.713712215 23.252351761
339 1 0.0 5.309687138 18.704711914 6.261353493
340 1 0.0 5.309687138 18.704711914 23.252351761
341 1 0.0 22.300685883 1.713712215 6.261353493
342 1 0.0 22.300685883 1.713712215 23.252351761
343 1 0.0 22.300685883 18.704711914 6.261353493
344 1 0.0 22.300685883 18.704711914 23.252351761
345 1 0.0 1.713712215 11.681311607 10.729645729
346 1 0.0 1.713712215 11.681311607 27.720645905
347 1 0.0 1.713712215 28.672311783 10.729645729
348 1 0.0 1.713712215 28.672311783 27.720645905
349 1 0.0 18.704711914 11.681311607 10.729645729
350 1 0.0 18.704711914 11.681311607 27.720645905
351 1 0.0 18.704711914 28.672311783 10.729645729
352 1 0.0 18.704711914 28.672311783 27.720645905
353 1 0.0 11.681311607 15.277287483 6.261353493
354 1 0.0 11.681311607 15.277287483 23.252351761
355 1 0.0 11.681311607 32.268287659 6.261353493
356 1 0.0 11.681311607 32.268287659 23.252351761
357 1 0.0 28.672311783 15.277287483 6.261353493
358 1 0.0 28.672311783 15.277287483 23.252351761
359 1 0.0 28.672311783 32.268287659 6.261353493
360 1 0.0 28.672311783 32.268287659 23.252351761
361 1 0.0 1.713712215 5.309687138 6.261353493
362 1 0.0 1.713712215 5.309687138 23.252351761
363 1 0.0 1.713712215 22.300685883 6.261353493
364 1 0.0 1.713712215 22.300685883 23.252351761
365 1 0.0 18.704711914 5.309687138 6.261353493
366 1 0.0 18.704711914 5.309687138 23.252351761
367 1 0.0 18.704711914 22.300685883 6.261353493
368 1 0.0 18.704711914 22.300685883 23.252351761
369 1 0.0 5.309687138 15.277287483 10.729645729
370 1 0.0 5.309687138 15.277287483 27.720645905
371 1 0.0 5.309687138 32.268287659 10.729645729
372 1 0.0 5.309687138 32.268287659 27.720645905
373 1 0.0 22.300685883 15.277287483 10.729645729
374 1 0.0 22.300685883 15.277287483 27.720645905
375 1 0.0 22.300685883 32.268287659 10.729645729
376 1 0.0 22.300685883 32.268287659 27.720645905
377 1 0.0 11.681311607 1.713712215 10.729645729
378 1 0.0 11.681311607 1.713712215 27.720645905
379 1 0.0 11.681311607 18.704711914 10.729645729
380 1 0.0 11.681311607 18.704711914 27.720645905
381 1 0.0 28.672311783 1.713712215 10.729645729
382 1 0.0 28.672311783 1.713712215 27.720645905
383 1 0.0 28.672311783 18.704711914 10.729645729
384 1 0.0 28.672311783 18.704711914 27.720645905
385 1 0.0 14.901955605 8.629728317 2.089043379
386 1 0.0 14.901955605 8.629728317 19.080041885
387 1 0.0 14.901955605 25.620727539 2.089043379
388 1 0.0 14.901955605 25.620727539 19.080041885
389 1 0.0 31.892953873 8.629728317 2.089043379
390 1 0.0 31.892953873 8.629728317 19.080041885
391 1 0.0 31.892953873 25.620727539 2.089043379
392 1 0.0 31.892953873 25.620727539 19.080041885
393 1 0.0 14.756853104 6.781787395 3.185812473
394 1 0.0 14.756853104 6.781787395 20.176811218
395 1 0.0 14.756853104 23.772787094 3.185812473
396 1 0.0 14.756853104 23.772787094 20.176811218
397 1 0.0 31.747852325 6.781787395 3.185812473
398 1 0.0 31.747852325 6.781787395 20.176811218
399 1 0.0 31.747852325 23.772787094 3.185812473
400 1 0.0 31.747852325 23.772787094 20.176811218
401 1 0.0 15.395544052 9.94822979 1.595454812
402 1 0.0 15.395544052 9.94822979 18.586454391
403 1 0.0 15.395544052 26.939229965 1.595454812
404 1 0.0 15.395544052 26.939229965 18.586454391
405 1 0.0 32.386543274 9.94822979 1.595454812
406 1 0.0 32.386543274 9.94822979 18.586454391
407 1 0.0 32.386543274 26.939229965 1.595454812
408 1 0.0 32.386543274 26.939229965 18.586454391
409 1 0.0 8.629728317 2.089043379 14.901955605
410 1 0.0 8.629728317 2.089043379 31.892953873
411 1 0.0 8.629728317 19.080041885 14.901955605
412 1 0.0 8.629728317 19.080041885 31.892953873
413 1 0.0 25.620727539 2.089043379 14.901955605
414 1 0.0 25.620727539 2.089043379 31.892953873
415 1 0.0 25.620727539 19.080041885 14.901955605
416 1 0.0 25.620727539 19.080041885 31.892953873
417 1 0.0 6.781787395 2.234146595 13.805187225
418 1 0.0 6.781787395 2.234146595 30.796186447
419 1 0.0 6.781787395 19.22514534 13.805187225
420 1 0.0 6.781787395 19.22514534 30.796186447
421 1 0.0 23.772787094 2.234146595 13.805187225
422 1 0.0 23.772787094 2.234146595 30.796186447
423 1 0.0 23.772787094 19.22514534 13.805187225
424 1 0.0 23.772787094 19.22514534 30.796186447
425 1 0.0 9.94822979 1.595454812 15.395544052
426 1 0.0 9.94822979 1.595454812 32.386543274
427 1 0.0 9.94822979 18.586454391 15.395544052
428 1 0.0 9.94822979 18.586454391 32.386543274
429 1 0.0 26.939229965 1.595454812 15.395544052
430 1 0.0 26.939229965 1.595454812 32.386543274
431 1 0.0 26.939229965 18.586454391 15.395544052
432 1 0.0 26.939229965 18.586454391 32.386543274
433 1 0.0 2.089043379 8.361270905 2.089043379
434 1 0.0 2.089043379 8.361270905 19.080041885
435 1 0.0 2.089043379 25.352270126 2.089043379
436 1 0.0 2.089043379 25.352270126 19.080041885
437 1 0.0 19.080041885 8.361270905 2.089043379
438 1 0.0 19.080041885 8.361270905 19.080041885
439 1 0.0 19.080041885 25.352270126 2.089043379
440 1 0.0 19.080041885 25.352270126 19.080041885
441 1 0.0 2.234146595 10.209211349 3.185812473
442 1 0.0 2.234146595 10.209211349 20.176811218
443 1 0.0 2.234146595 27.200210571 3.185812473
444 1 0.0 2.234146595 27.200210571 20.176811218
445 1 0.0 19.22514534 10.209211349 3.185812473
446 1 0.0 19.22514534 10.209211349 20.176811218
447 1 0.0 19.22514534 27.200210571 3.185812473
448 1 0.0 19.22514534 27.200210571 20.176811218
449 1 0.0 1.595454812 7.042768955 1.595454812
450 1 0.0 1.595454812 7.042768955 18.586454391
451 1 0.0 1.595454812 24.0337677 1.595454812
452 1 0.0 1.595454812 24.0337677 18.586454391
453 1 0.0 18.586454391 7.042768955 1.595454812
454 1 0.0 18.586454391 7.042768955 18.586454391
455 1 0.0 18.586454391 24.0337677 1.595454812
456 1 0.0 18.586454391 24.0337677 18.586454391
457 1 0.0 8.361270905 14.901955605 14.901955605
458 1 0.0 8.361270905 14.901955605 31.892953873
459 1 0.0 8.361270905 31.892953873 14.901955605
460 1 0.0 8.361270905 31.892953873 31.892953873
461 1 0.0 25.352270126 14.901955605 14.901955605
462 1 0.0 25.352270126 14.901955605 31.892953873
463 1 0.0 25.352270126 31.892953873 14.901955605
464 1 0.0 25.352270126 31.892953873 31.892953873
465 1 0.0 10.209211349 14.756853104 13.805187225
466 1 0.0 10.209211349 14.756853104 30.796186447
467 1 0.0 10.209211349 31.747852325 13.805187225
468 1 0.0 10.209211349 31.747852325 30.796186447
469 1 0.0 27.200210571 14.756853104 13.805187225
470 1 0.0 27.200210571 14.756853104 30.796186447
471 1 0.0 27.200210571 31.747852325 13.805187225
472 1 0.0 27.200210571 31.747852325 30.796186447
473 1 0.0 7.042768955 15.395544052 15.395544052
474 1 0.0 7.042768955 15.395544052 32.386543274
475 1 0.0 7.042768955 32.386543274 15.395544052
476 1 0.0 7.042768955 32.386543274 32.386543274
477 1 0.0 24.0337677 15.395544052 15.395544052
478 1 0.0 24.0337677 15.395544052 32.386543274
479 1 0.0 24.0337677 32.386543274 15.395544052
480 1 0.0 24.0337677 32.386543274 32.386543274
481 1 0.0 14.901955605 8.361270905 14.901955605
482 1 0.0 14.901955605 8.361270905 31.892953873
483 1 0.0 14.901955605 25.352270126 14.901955605
484 1 0.0 14.901955605 25.352270126 31.892953873
485 1 0.0 31.892953873 8.361270905 14.901955605
486 1 0.0 31.892953873 8.361270905 31.892953873
487 1 0.0 31.892953873 25.352270126 14.901955605
488 1 0.0 31.892953873 25.352270126 31.892953873
489 1 0.0 14.756853104 10.209211349 13.805187225
490 1 0.0 14.756853104 10.209211349 30.796186447
491 1 0.0 14.756853104 27.200210571 13.805187225
492 1 0.0 14.756853104 27.200210571 30.796186447
493 1 0.0 31.747852325 10.209211349 13.805187225
494 1 0.0 31.747852325 10.209211349 30.796186447
495 1 0.0 31.747852325 27.200210571 13.805187225
496 1 0.0 31.747852325 27.200210571 30.796186447
497 1 0.0 15.395544052 7.042768955 15.395544052
498 1 0.0 15.395544052 7.042768955 32.386543274
499 1 0.0 15.395544052 24.0337677 15.395544052
500 1 0.0 15.395544052 24.0337677 32.386543274
501 1 0.0 32.386543274 7.042768955 15.395544052
502 1 0.0 32.386543274 7.042768955 32.386543274
503 1 0.0 32.386543274 24.0337677 15.395544052
504 1 0.0 32.386543274 24.0337677 32.386543274
505 1 0.0 8.361270905 2.089043379 2.089043379
506 1 0.0 8.361270905 2.089043379 19.080041885
507 1 0.0 8.361270905 19.080041885 2.089043379
508 1 0.0 8.361270905 19.080041885 19.080041885
509 1 0.0 25.352270126 2.089043379 2.089043379
510 1 0.0 25.352270126 2.089043379 19.080041885
511 1 0.0 25.352270126 19.080041885 2.089043379
512 1 0.0 25.352270126 19.080041885 19.080041885
513 1 0.0 10.209211349 2.234146595 3.185812473
514 1 0.0 10.209211349 2.234146595 20.176811218
515 1 0.0 10.209211349 19.22514534 3.185812473
516 1 0.0 10.209211349 19.22514534 20.176811218
517 1 0.0 27.200210571 2.234146595 3.185812473
518 1 0.0 27.200210571 2.234146595 20.176811218
519 1 0.0 27.200210571 19.22514534 3.185812473
520 1 0.0 27.200210571 19.22514534 20.176811218
521 1 0.0 7.042768955 1.595454812 1.595454812
522 1 0.0 7.042768955 1.595454812 18.586454391
523 1 0.0 7.042768955 18.586454391 1.595454812
524 1 0.0 7.042768955 18.586454391 18.586454391
525 1 0.0 24.0337677 1.595454812 1.595454812
526 1 0.0 24.0337677 1.595454812 18.586454391
527 1 0.0 24.0337677 18.586454391 1.595454812
528 1 0.0 24.0337677 18.586454391 18.586454391
529 1 0.0 2.089043379 8.629728317 14.901955605
530 1 0.0 2.089043379 8.629728317 31.892953873
531 1 0.0 2.089043379 25.620727539 14.901955605
532 1 0.0 2.089043379 25.620727539 31.892953873
533 1 0.0 19.080041885 8.629728317 14.901955605
534 1 0.0 19.080041885 8.629728317 31.892953873
535 1 0.0 19.080041885 25.620727539 14.901955605
536 1 0.0 19.080041885 25.620727539 31.892953873
537 1 0.0 2.234146595 6.781787395 13.805187225
538 1 0.0 2.234146595 6.781787395 30.796186447
539 1 0.0 2.234146595 23.772787094 13.805187225
540 1 0.0 2.234146595 23.772787094 30.796186447
541 1 0.0 19.22514534 6.781787395 13.805187225
542 1 0.0 19.22514534 6.781787395 30.796186447
543 1 0.0 19.22514534 23.772787094 13.805187225
544 1 0.0 19.22514534 23.772787094 30.796186447
545 1 0.0 1.595454812 9.94822979 15.395544052
546 1 0.0 1.595454812 9.94822979 32.386543274
547 1 0.0 1.595454812 26.939229965 15.395544052
548 1 0.0 1.595454812 26.939229965 32.386543274
549 1 0.0 18.586454391 9.94822979 15.395544052
550 1 0.0 18.586454391 9.94822979 32.386543274
551 1 0.0 18.586454391 26.939229965 15.395544052
552 1 0.0 18.586454391 26.939229965 32.386543274
553 1 0.0 8.629728317 14.901955605 2.089043379
554 1 0.0 8.629728317 14.901955605 19.080041885
555 1 0.0 8.629728317 31.892953873 2.089043379
556 1 0.0 8.629728317 31.892953873 19.080041885
557 1 0.0 25.620727539 14.901955605 2.089043379
558 1 0.0 25.620727539 14.901955605 19.080041885
559 1 0.0 25.620727539 31.892953873 2.089043379
560 1 0.0 25.620727539 31.892953873 19.080041885
561 1 0.0 6.781787395 14.756853104 3.185812473
562 1 0.0 6.781787395 14.756853104 20.176811218
563 1 0.0 6.781787395 31.747852325 3.185812473
564 1 0.0 6.781787395 31.747852325 20.176811218
565 1 0.0 23.772787094 14.756853104 3.185812473
566 1 0.0 23.772787094 14.756853104 20.176811218
567 1 0.0 23.772787094 31.747852325 3.185812473
568 1 0.0 23.772787094 31.747852325 20.176811218
569 1 0.0 9.94822979 15.395544052 1.595454812
570 1 0.0 9.94822979 15.395544052 18.586454391
571 1 0.0 9.94822979 32.386543274 1.595454812
572 1 0.0 9.94822979 32.386543274 18.586454391
573 1 0.0 26.939229965 15.395544052 1.595454812
574 1 0.0 26.939229965 15.395544052 18.586454391
575 1 0.0 26.939229965 32.386543274 1.595454812
576 1 0.0 26.939229965 32.386543274 18.586454391
577 1 0.0 2.089043379 14.901955605 8.629728317
578 1 0.0 2.089043379 14.901955605 25.620727539
579 1 0.0 2.089043379 31.892953873 8.629728317
580 1 0.0 2.089043379 31.892953873 25.620727539
581 1 0.0 19.080041885 14.901955605 8.629728317
582 1 0.0 19.080041885 14.901955605 25.620727539
583 1 0.0 19.080041885 31.892953873 8.629728317
584 1 0.0 19.080041885 31.892953873 25.620727539
585 1 0.0 3.185812473 14.756853104 6.781787395
586 1 0.0 3.185812473 14.756853104 23.772787094
587 1 0.0 3.185812473 31.747852325 6.781787395
588 1 0.0 3.185812473 31.747852325 23.772787094
589 1 0.0 20.176811218 14.756853104 6.781787395
590 1 0.0 20.176811218 14.756853104 23.772787094
591 1 0.0 20.176811218 31.747852325 6.781787395
592 1 0.0 20.176811218 31.747852325 23.772787094
593 1 0.0 1.595454812 15.395544052 9.94822979
594 1 0.0 1.595454812 15.395544052 26.939229965
595 1 0.0 1.595454812 32.386543274 9.94822979
596 1 0.0 1.595454812 32.386543274 26.939229965
597 1 0.0 18.586454391 15.395544052 9.94822979
598 1 0.0 18.586454391 15.395544052 26.939229965
599 1 0.0 18.586454391 32.386543274 9.94822979
600 1 0.0 18.586454391 32.386543274 26.939229965
601 1 0.0 14.901955605 14.901955605 8.361270905
602 1 0.0 14.901955605 14.901955605 25.352270126
603 1 0.0 14.901955605 31.892953873 8.361270905
604 1 0.0 14.901955605 31.892953873 25.352270126
605 1 0.0 31.892953873 14.901955605 8.361270905
606 1 0.0 31.892953873 14.901955605 25.352270126
607 1 0.0 31.892953873 31.892953873 8.361270905
608 1 0.0 31.892953873 31.892953873 25.352270126
609 1 0.0 14.756853104 13.805187225 10.209211349
610 1 0.0 14.756853104 13.805187225 27.200210571