# LAMMPS data file written by Ovito Basic 3.0.0-dev791
864 atoms
1 atom types
0.0 50.0 xlo xhi
0.0 50.0 ylo yhi
0.0 50.0 zlo zhi

Atoms  # charge

1 1 0.0 12.334369659 18.583190918 18.784799576
2 1 0.0 21.179620743 14.175049782 17.977720261
3 1 0.0 16.961839676 16.741300583 22.281110764
4 1 0.0 14.091939926 16.840759277 17.268009186
5 1 0.0 17.356719971 15.739170074 27.266820908
6 1 0.0 19.597000122 28.08603096 21.298410416
7 1 0.0 18.119419098 16.779359818 16.688390732
8 1 0.0 14.87087059 17.92317009 20.11797905
9 1 0.0 17.903160095 11.170339584 24.455659866
10 1 0.0 13.254240036 17.401620865 25.484401703
11 1 0.0 23.93791008 13.735759735 24.944059372
12 1 0.0 21.064069748 14.480750084 21.267910004
13 1 0.0 11.964859962 15.624541283 23.559709549
14 1 0.0 16.319219589 13.135519981 26.175069809
15 1 0.0 10.327070236 17.376289368 25.62717247
16 1 0.0 17.896839142 11.456729889 27.791797638
17 1 0.0 14.264120102 17.315629959 31.825149536
18 1 0.0 17.167289734 26.730739594 32.104228973
19 1 0.0 13.511870384 20.047439575 32.71352005
20 1 0.0 18.064479828 23.256620407 35.096099854
21 1 0.0 15.433010101 21.956129074 31.241670609
22 1 0.0 18.396299362 25.01968956 37.387710571
23 1 0.0 27.902709961 24.004159927 36.945331573
24 1 0.0 20.083900452 24.492240906 33.678459167
25 1 0.0 14.833849907 20.726909637 19.174690247
26 1 0.0 20.097360611 24.096689224 15.572890282
27 1 0.0 14.29090023 23.381889343 17.556840897
28 1 0.0 19.738899231 13.053770065 23.145130157
29 1 0.0 16.507040024 21.333789825 16.928949356
30 1 0.0 16.639299393 16.106620789 19.096740723
31 1 0.0 18.100330353 20.34210968 12.741230011
32 1 0.0 11.721850395 21.96680069 28.115140915
33 1 0.0 22.98500061 16.42980957 26.123970032
34 1 0.0 11.640359879 18.648080826 23.309110641
35 1 0.0 20.097219467 10.005339622 22.585739136
36 1 0.0 19.93847084 20.499570847 25.071582794
37 1 0.0 15.267950058 12.029439926 23.338619232
38 1 0.0 18.32449913 18.965250015 23.388759613
39 1 0.0 11.558670044 20.474750519 25.487318039
40 1 0.0 15.987239838 19.757640839 22.173149109
41 1 0.0 14.684941292 19.57213974 29.521318436
42 1 0.0 11.263489723 18.533180237 27.880187988
43 1 0.0 15.082110405 14.477568626 31.304681778
44 1 0.0 15.36330986 18.639619827 34.164741516
45 1 0.0 16.760749817 16.38599968 33.189029694
46 1 0.0 12.793560028 27.727180481 27.001138687
47 1 0.0 21.618049622 20.574710846 35.886329651
48 1 0.0 14.966300011 29.255529404 26.754659653
49 1 0.0 12.120129585 21.43721962 18.432640076
50 1 0.0 15.223810196 23.467859268 14.924350739
51 1 0.0 14.688099861 27.967340469 17.951620102
52 1 0.0 13.464830399 31.420589447 32.000118256
53 1 0.0 10.44396019 19.479040146 20.828210831
54 1 0.0 18.56855011 32.067890167 17.128400803
55 1 0.0 13.087849617 20.02519989 21.25041008
56 1 0.0 11.626959801 23.662160873 25.51940918
57 1 0.0 13.991371155 24.526540756 23.944099426
58 1 0.0 17.54516983 26.008350372 34.879070282
59 1 0.0 13.61674118 19.960159302 27.081880569
60 1 0.0 12.102040291 16.976980209 21.065149307
61 1 0.0 15.602930069 15.841290474 24.981319427
62 1 0.0 16.176610947 18.391849518 24.806589127
63 1 0.0 20.10449028 22.626909256 30.083629608
64 1 0.0 16.220369339 20.31385994 27.105812073
65 1 0.0 13.128749847 25.843900681 32.748329163
66 1 0.0 12.532150269 21.873600006 30.58864975
67 1 0.0 14.700019836 22.371259689 28.587337494
68 1 0.0 12.143269539 15.436500549 27.224571228
69 1 0.0 17.415489197 22.019649506 29.321870804
70 1 0.0 14.865550041 27.233018875 30.807899475
71 1 0.0 19.53883934 25.412740707 31.097148895
72 1 0.0 15.608360291 24.516120911 33.064029694
73 1 0.0 18.179849625 27.840488434 13.794429779
74 1 0.0 24.67070961 33.623279572 17.096429825
75 1 0.0 18.683130264 23.368440628 19.450460434
76 1 0.0 14.028160095 27.129640579 22.840589523
77 1 0.0 13.417848587 32.298828125 20.653730392
78 1 0.0 14.7228899 25.7977314 16.122869492
79 1 0.0 13.408209801 25.604469299 19.044979095
80 1 0.0 13.38272953 22.970220566 20.377719879
81 1 0.0 20.679790497 25.769779205 13.182451248
82 1 0.0 18.185939789 21.293119431 22.00274086
83 1 0.0 14.149551392 20.119749069 24.127849579
84 1 0.0 13.752900124 29.679519653 29.436340332
85 1 0.0 15.826479912 31.743860245 30.585559845
86 1 0.0 14.260668755 30.055040359 22.108970642
87 1 0.0 14.264180183 22.374160767 25.74341011
88 1 0.0 17.994150162 27.029287338 29.379480362
89 1 0.0 13.425940514 17.051589966 29.053449631
90 1 0.0 10.571370125 29.029958725 25.612678528
91 1 0.0 13.366560936 24.787229538 27.537649155
92 1 0.0 17.218139648 31.1979599 27.100240707
93 1 0.0 19.651920319 33.403949738 31.933990479
94 1 0.0 16.948720932 34.063510895 31.490150452
95 1 0.0 13.437729836 22.894979477 33.018661499
96 1 0.0 16.379640579 29.433580399 29.07254982
97 1 0.0 23.113100052 29.671201706 18.977470398
98 1 0.0 20.94119072 36.137420654 15.545390129
99 1 0.0 20.514200211 29.155740738 13.740189552
100 1 0.0 31.254049301 32.176761627 14.066849709
101 1 0.0 10.879520416 22.13710022 20.858470917
102 1 0.0 15.642089844 28.203477859 14.95141983
103 1 0.0 12.760951042 27.924749374 20.328510284
104 1 0.0 14.904660225 32.078411102 18.189390182
105 1 0.0 20.821149826 26.486909866 28.798877716
106 1 0.0 15.492139816 34.656890869 20.341999054
107 1 0.0 10.513950348 26.214509964 27.668889999
108 1 0.0 17.604499817 31.370979309 24.305879593
109 1 0.0 12.384840012 30.84526062 26.898271561
110 1 0.0 19.389419556 29.316490173 28.545307159
111 1 0.0 11.189809799 28.019260406 22.633039474
112 1 0.0 21.706140518 35.184249878 31.55714798
113 1 0.0 21.179889679 37.90504837 31.513011932
114 1 0.0 11.698209763 26.168149948 24.799179077
115 1 0.0 18.103370667 22.319059372 26.513660431
116 1 0.0 12.660750389 32.233760834 29.492191315
117 1 0.0 15.344110489 26.905160904 28.206310272
118 1 0.0 26.029338837 31.987100601 31.170030594
119 1 0.0 21.97936058 21.124259949 31.549417496
120 1 0.0 15.118570328 33.060218811 33.394950867
121 1 0.0 18.942850113 34.625549316 17.614339828
122 1 0.0 22.928840637 33.59651947 14.350021362
123 1 0.0 18.216789246 36.445480347 24.602420807
124 1 0.0 26.291370392 33.446971893 19.416959763
125 1 0.0 21.503089905 31.083810806 20.888389587
126 1 0.0 25.007110596 40.213878632 20.484630585
127 1 0.0 15.800330162 30.271839142 19.776580811
128 1 0.0 23.181060791 31.302520752 16.515710831
129 1 0.0 13.038701057 29.273700714 24.688379288
130 1 0.0 15.359009743 36.44903183 24.966430664
131 1 0.0 14.662650108 34.8332901 27.952489853
132 1 0.0 20.796289444 37.587810516 24.033660889
133 1 0.0 16.937120438 33.613399506 28.634292603
134 1 0.0 16.651350021 36.221790314 29.661729813
135 1 0.0 19.609510422 32.638149261 27.26115799
136 1 0.0 23.402540207 36.020339966 26.553600311
137 1 0.0 21.473150253 33.004489899 29.695829391
138 1 0.0 17.256929398 34.745491028 22.766349792
139 1 0.0 17.338899612 28.924009323 34.124130249
140 1 0.0 22.787340164 36.516841888 33.813678741
141 1 0.0 27.975610733 34.150241852 27.755897522
142 1 0.0 28.944990158 38.324920654 30.190790176
143 1 0.0 22.418819427 28.230640411 34.96831131
144 1 0.0 26.790559769 36.705551147 30.964109421
145 1 0.0 17.816110611 22.305669785 14.852079391
146 1 0.0 24.921260834 12.287249565 21.584669113
147 1 0.0 21.144550323 18.963729858 12.861420631
148 1 0.0 14.023889542 19.615449905 16.550889969
149 1 0.0 23.132339478 18.13392067 15.684869766
150 1 0.0 19.376430511 16.104450226 19.279909134
151 1 0.0 24.551860809 10.984149933 24.319959641
152 1 0.0 24.705120087 16.804269791 23.895019531
153 1 0.0 23.524290085 11.675239563 27.258789063
154 1 0.0 21.833129883 10.374409676 20.264350891
155 1 0.0 22.165290833 16.181230545 28.866048813
156 1 0.0 19.927789688 12.533530235 19.59305954
157 1 0.0 13.667160034 13.805270195 24.938240051
158 1 0.0 15.947699547 17.720729828 15.264379501
159 1 0.0 13.994389534 15.419599533 19.585939407
160 1 0.0 18.328159332 15.211319923 30.89333725
161 1 0.0 19.544740677 20.546470642 28.07542038
162 1 0.0 18.405519485 18.530620575 26.528060913
163 1 0.0 20.571470261 13.903129578 32.367210388
164 1 0.0 18.555259705 17.697099686 31.633939743
165 1 0.0 16.715610504 13.721920967 29.141988754
166 1 0.0 19.125640869 12.250200272 30.470190048
167 1 0.0 16.405420303 19.175390244 31.726100922
168 1 0.0 18.140880585 19.275619507 33.985069275
169 1 0.0 17.873289108 18.458940506 20.471160889
170 1 0.0 20.645050049 28.036880493 18.692249298
171 1 0.0 19.232990265 18.779979706 18.04265976
172 1 0.0 19.295309067 23.41286087 12.838951111
173 1 0.0 27.59236145 14.827209473 14.166509628
174 1 0.0 25.022089005 15.0020895 12.526411057
175 1 0.0 19.393720627 21.589759827 17.153289795
176 1 0.0 17.809740067 20.872859955 19.230819702
177 1 0.0 18.281919479 17.611049652 13.418899536
178 1 0.0 16.019830704 13.155139923 19.423299789
179 1 0.0 15.965419769 15.073379517 16.218839645
180 1 0.0 14.175470352 17.423519135 22.958459854
181 1 0.0 17.187210083 14.100951195 23.679510117
182 1 0.0 22.952680588 15.764840126 19.666149139
183 1 0.0 19.590450287 16.086820602 33.81772995
184 1 0.0 14.811609268 14.601909637 22.179649353
185 1 0.0 12.212639809 26.874219894 29.832012177
186 1 0.0 21.486530304 11.313269615 17.473220825
187 1 0.0 15.380960464 17.749959946 27.369312286
188 1 0.0 22.446580887 16.471689224 33.696960449
189 1 0.0 15.033828735 27.33480835 33.702289581
190 1 0.0 20.696979523 18.728839874 32.816478729
191 1 0.0 25.769889832 19.136940002 33.687698364
192 1 0.0 19.34403038 33.54776001 36.870269775
193 1 0.0 16.164480209 25.823270798 18.630489349
194 1 0.0 15.093700409 31.029850006 15.13006115
195 1 0.0 19.337450027 25.574481964 17.956169128
196 1 0.0 16.575630188 29.987630844 17.185100555
197 1 0.0 9.773940086 20.629739761 23.364519119
198 1 0.0 22.239189148 25.384319305 16.661849976
199 1 0.0 20.989040375 20.127559662 22.404569626
200 1 0.0 11.92236042 24.983869553 21.983659744
201 1 0.0 12.410079956 22.094839096 23.284799576
202 1 0.0 16.775310516 21.059640884 24.378919601
203 1 0.0 21.733480453 22.402160645 24.11095047
204 1 0.0 16.405620575 18.682729721 18.056060791
205 1 0.0 20.959789276 17.960260391 24.542049408
206 1 0.0 22.545669556 20.627979279 26.136619568
207 1 0.0 27.433330536 22.881940842 27.254850388
208 1 0.0 16.137699127 24.579500198 27.463378906
209 1 0.0 18.692369461 20.883199692 36.489028931
210 1 0.0 21.315540314 25.100990295 25.469430923
211 1 0.0 27.313882828 15.455479622 30.681520462
212 1 0.0 19.768339157 21.586420059 33.737438202
213 1 0.0 12.054120064 19.038949966 30.48843956
214 1 0.0 22.384260178 21.34128952 28.84985733
215 1 0.0 21.595869064 31.966451645 36.913280487
216 1 0.0 21.517929077 25.252309799 38.113040924
217 1 0.0 22.863140106 30.455579758 13.908149719
218 1 0.0 26.290269852 24.07652092 12.849410057
219 1 0.0 19.248399734 29.331609726 16.70085907
220 1 0.0 21.994699478 28.881240845 16.448570251
221 1 0.0 23.93298912 25.517978668 12.360969543
222 1 0.0 15.681700706 27.536762238 20.714500427
223 1 0.0 17.38684082 29.607339859 22.021409988
224 1 0.0 18.131429672 26.070980072 20.540809631
225 1 0.0 16.046230316 29.017120361 24.186330795
226 1 0.0 12.151000023 31.842792511 23.485359192
227 1 0.0 19.292100906 23.397579193 24.033460617
228 1 0.0 15.581299782 38.12322998 27.276939392
229 1 0.0 18.234529495 25.779119492 25.58549118
230 1 0.0 11.193360329 24.207220078 29.686429977
231 1 0.0 20.401580811 27.563009262 26.219642639
232 1 0.0 17.492420197 28.276920319 26.810771942
233 1 0.0 20.734640121 22.783679962 26.770370483
234 1 0.0 16.697469711 24.613330841 30.310131073
235 1 0.0 17.6145401 13.709479332 33.124500275
236 1 0.0 19.062269211 24.38105011 28.245910645
237 1 0.0 17.685110092 31.256120682 35.513648987
238 1 0.0 20.623289108 27.922010422 31.028547287
239 1 0.0 14.697178841 30.227767944 34.385509491
240 1 0.0 14.210671425 34.142501831 30.843839645
241 1 0.0 20.120090485 26.917821884 15.724350929
242 1 0.0 25.720701218 31.710519791 15.004970551
243 1 0.0 17.737989426 25.082769394 14.340800285
244 1 0.0 17.664600372 36.034511566 15.286849022
245 1 0.0 16.047840118 22.96846962 19.507720947
246 1 0.0 24.885450363 29.301361084 15.964430809
247 1 0.0 15.350070953 22.390209198 22.374290466
248 1 0.0 14.799369812 31.40073204 24.734899521
249 1 0.0 17.289100647 24.147279739 17.026750565
250 1 0.0 17.445280075 27.02186203 16.471939087
251 1 0.0 20.096160889 30.22879982 23.149459839
252 1 0.0 15.1355896 24.963199615 21.280319214
253 1 0.0 14.554519653 34.116939545 23.187490463
254 1 0.0 21.825899124 35.007091522 24.502500534
255 1 0.0 25.904140472 24.198020935 25.318618774
256 1 0.0 17.381990433 31.512260437 32.709739685
257 1 0.0 23.466400146 25.88435936 30.394680023
258 1 0.0 10.988789558 29.127819061 28.679048538
259 1 0.0 15.033349037 26.661840439 25.42001915
260 1 0.0 23.159179688 31.823179245 31.746009827
261 1 0.0 18.201389313 29.197380066 31.147361755
262 1 0.0 29.635900497 32.123390198 36.370479584
263 1 0.0 28.888130188 36.815410614 32.833721161
264 1 0.0 19.570419312 27.346139908 33.427158356
265 1 0.0 26.680490494 35.651489258 16.929470062
266 1 0.0 25.628557205 34.69575119 14.414349556
267 1 0.0 18.312179565 35.504520416 20.121509552
268 1 0.0 33.220668793 38.069568634 20.178970337
269 1 0.0 22.974399567 33.363800049 19.283960342
270 1 0.0 22.699800491 38.395038605 19.609239578
271 1 0.0 24.220649719 26.542419434 21.432760239
272 1 0.0 16.554830551 23.88256073 24.670330048
273 1 0.0 14.773629189 31.94383049 27.657520294
274 1 0.0 12.866729736 28.601959229 31.921390533
275 1 0.0 21.02507019 31.195861816 18.211919785
276 1 0.0 18.677400589 36.225429535 31.906259537
277 1 0.0 19.276369095 34.738178253 29.43778038
278 1 0.0 19.904550552 35.258338928 22.414730072
279 1 0.0 23.631650925 34.689331055 29.450759888
280 1 0.0 21.735330582 36.397361755 28.786268234
281 1 0.0 22.696899414 28.511241913 28.832527161
282 1 0.0 16.394620895 33.960990906 25.48249054
283 1 0.0 30.520120621 35.312538147 26.999059677
284 1 0.0 21.022939682 38.340148926 26.534799576
285 1 0.0 27.735918045 34.067680359 35.206809998
286 1 0.0 20.308540344 37.993289948 21.050849915
287 1 0.0 20.237070084 35.516681671 26.794588089
288 1 0.0 24.565479279 27.132167816 34.199588776
289 1 0.0 21.15568924 23.446640015 18.52173996
290 1 0.0 23.674760818 17.997310638 12.85050106
291 1 0.0 24.285409927 22.318529129 12.106340408
292 1 0.0 25.333499908 29.49136734 13.085490227
293 1 0.0 17.963439941 14.441840172 20.890989304
294 1 0.0 26.511720657 15.147709846 16.984420776
295 1 0.0 18.321430206 14.142100334 17.810689926
296 1 0.0 18.6457901 16.336229324 24.604320526
297 1 0.0 18.177589417 19.398500443 15.59250927
298 1 0.0 23.761299133 9.610050201 21.982339859
299 1 0.0 27.984619141 12.762570381 30.302671432
300 1 0.0 20.396089554 16.019390106 26.530460358
301 1 0.0 24.312480927 14.290790558 27.679229736
302 1 0.0 31.514982224 16.50248909 27.707210541
303 1 0.0 25.32888031 13.256619453 30.107761383
304 1 0.0 14.796299934 14.848099709 27.611980438
305 1 0.0 27.136451721 16.985279083 35.144798279
306 1 0.0 17.506420135 19.093000412 29.28796196
307 1 0.0 20.365749359 18.168859482 35.575950623
308 1 0.0 29.032749176 21.3104496 36.707439423
309 1 0.0 17.830509186 16.98279953 35.740520477
310 1 0.0 23.290380478 20.112329483 37.857368469
311 1 0.0 23.328380585 22.843740463 37.077011108
312 1 0.0 20.828199387 19.084890366 30.048692703
313 1 0.0 20.60807991 31.356250763 15.357349396
314 1 0.0 31.034160614 21.159210205 14.419649124
315 1 0.0 30.115449905 16.541629791 13.970720291
316 1 0.0 25.563690186 22.107759476 14.832249641
317 1 0.0 23.254289627 20.411710739 14.048158646
318 1 0.0 20.444980621 18.15253067 15.332969666
319 1 0.0 24.108520508 14.736780167 22.25868988
320 1 0.0 22.451169968 22.297399521 16.058849335
321 1 0.0 17.717130661 11.431200027 21.602800369
322 1 0.0 26.89332962 12.721839905 23.622699738
323 1 0.0 25.338272095 13.947799683 19.233720779
324 1 0.0 23.393230438 18.114910126 18.510099411
325 1 0.0 26.111539841 18.178670883 30.744430542
326 1 0.0 21.567470551 15.015649796 24.052139282
327 1 0.0 27.156320572 14.393250465 28.002279282
328 1 0.0 23.327459335 17.893949509 31.249601364
329 1 0.0 23.735889435 18.663249969 28.787279129
330 1 0.0 31.172388077 19.164810181 35.213321686
331 1 0.0 23.831829071 18.173999786 35.82624054
332 1 0.0 25.621818542 16.684589386 27.466197968
333 1 0.0 16.280309677 16.567560196 29.801261902
334 1 0.0 28.062450409 20.482910156 39.227378845
335 1 0.0 20.726730347 23.583919525 36.057109833
336 1 0.0 31.530220032 17.098489761 33.237251282
337 1 0.0 17.960300446 30.587997437 14.569659233
338 1 0.0 24.42609024 23.479179382 17.495059967
339 1 0.0 23.235630035 27.014709473 18.879659653
340 1 0.0 21.066469193 21.633909225 11.738659859
341 1 0.0 25.068981171 13.555508614 14.882678986
342 1 0.0 20.982179642 18.157459259 19.958179474
343 1 0.0 28.375017166 19.693399429 23.64689064
344 1 0.0 27.850460052 21.38727951 20.337099075
345 1 0.0 19.607379913 25.821920395 22.977460861
346 1 0.0 27.379119873 24.484260559 21.406230927
347 1 0.0 29.213869095 15.583580971 26.132190704
348 1 0.0 24.695230484 28.285301208 23.615940094
349 1 0.0 27.271471024 11.986160278 20.384580612
350 1 0.0 28.496900558 19.707170486 29.992809296
351 1 0.0 26.723960876 14.715489388 21.497409821
352 1 0.0 21.192199707 18.521900177 27.462219238
353 1 0.0 24.876180649 21.388849258 27.667608261
354 1 0.0 28.348360062 27.020570755 29.707040787
355 1 0.0 30.011472702 19.314300537 32.169010162
356 1 0.0 35.780971527 26.454778671 31.270450592
357 1 0.0 23.633779526 14.563010216 31.977399826
358 1 0.0 23.024459839 19.654850006 33.657310486
359 1 0.0 20.370969772 26.466598511 35.835090637
360 1 0.0 16.352180481 21.294000626 33.75094986
361 1 0.0 17.463449478 32.755260468 19.406410217
362 1 0.0 29.867809296 26.735309601 12.27960968
363 1 0.0 16.277280807 35.912578583 18.017240524
364 1 0.0 32.279998779 31.294921875 21.396139145
365 1 0.0 24.30904007 31.948221207 21.0978508
366 1 0.0 35.447551727 32.983081818 16.980939865
367 1 0.0 21.131650925 25.78040123 20.209360123
368 1 0.0 21.505029678 32.231998444 24.714519501
369 1 0.0 17.727090836 23.97451973 22.005819321
370 1 0.0 23.351890564 24.307580948 20.063919067
371 1 0.0 24.325180054 24.740800858 32.793041229
372 1 0.0 18.6647892 28.304069519 24.175930023
373 1 0.0 21.883459091 27.395578384 23.624370575
374 1 0.0 25.073179245 33.704540253 27.278848648
375 1 0.0 26.958909988 21.915079117 29.886569977
376 1 0.0 22.329269409 24.748910904 22.64812088
377 1 0.0 23.426729202 23.249399185 26.213159561
378 1 0.0 24.572330475 20.273529053 30.589092255
379 1 0.0 17.716669083 33.835380554 34.10218811
380 1 0.0 18.796989441 20.536819458 31.363578796
381 1 0.0 23.896369934 22.375350952 39.824810028
382 1 0.0 21.989490509 23.829050064 31.505310059
383 1 0.0 18.003080368 23.132169724 32.194519043
384 1 0.0 27.401140213 23.254869461 39.771881104
385 1 0.0 23.161020279 28.41881752 11.892760277
386 1 0.0 21.512739182 35.794620514 18.689229965
387 1 0.0 27.808670044 27.167358398 16.785970688
388 1 0.0 17.776390076 28.20936203 18.92539978
389 1 0.0 21.468870163 33.701339722 16.715110779
390 1 0.0 29.468610764 23.66724968 12.082480431
391 1 0.0 27.390649796 32.861068726 16.610139847
392 1 0.0 32.42578125 31.454750061 16.49902916
393 1 0.0 22.205589294 28.461439133 21.194189072
394 1 0.0 17.378610611 35.862998962 27.135818481
395 1 0.0 19.551240921 30.125417709 25.86894989
396 1 0.0 27.638309479 29.794397354 30.228120804
397 1 0.0 24.892499924 29.522499084 27.74725914
398 1 0.0 28.165662766 40.020900726 24.037319183
399 1 0.0 24.679510117 34.460128784 32.064559937
400 1 0.0 27.666749954 34.305568695 32.475128174
401 1 0.0 20.062599182 30.122610092 32.775009155
402 1 0.0 30.745542526 39.321510315 24.970180511
403 1 0.0 26.345310211 25.263011932 30.756780624
404 1 0.0 18.433549881 31.679388046 29.970588684
405 1 0.0 20.180669785 32.429660797 34.410881042
406 1 0.0 31.634080887 36.10723877 29.616880417
407 1 0.0 33.853889465 38.534820557 25.977689743
408 1 0.0 25.60533905 32.767478943 33.953071594
409 1 0.0 30.517370224 27.711149216 17.621099472
410 1 0.0 33.352268219 33.847129822 20.703159332
411 1 0.0 16.583530426 33.449440002 16.090080261
412 1 0.0 28.921070099 34.966259003 15.177960396
413 1 0.0 34.85243988 35.97977066 21.640520096
414 1 0.0 22.373729706 36.0522995 21.613710403
415 1 0.0 19.324220657 37.348068237 17.86138916
416 1 0.0 18.891159058 30.521118164 19.949489594
417 1 0.0 13.13833046 33.564060211 25.945222855
418 1 0.0 24.760910034 34.684940338 21.616090775
419 1 0.0 23.9041996 36.688079834 23.646339417
420 1 0.0 19.233030319 37.64107132 28.67880249
421 1 0.0 24.886480331 29.290019989 21.13381958
422 1 0.0 21.82060051 30.749452591 27.345729828
423 1 0.0 26.419469833 38.929321289 29.184181213
424 1 0.0 18.104000092 38.759521484 26.420289993
425 1 0.0 22.639369965 38.920528412 22.246019363
426 1 0.0 26.696460724 36.562469482 23.192199707
427 1 0.0 22.96821022 28.720170975 25.704849243
428 1 0.0 19.139369965 33.747138977 24.709060669
429 1 0.0 28.294059753 39.538410187 27.036640167
430 1 0.0 30.599420547 34.395160675 31.6014328
431 1 0.0 23.83741951 33.168819427 38.367290497
432 1 0.0 24.172000885 31.827190399 29.070018768
433 1 0.0 27.894449234 17.358760834 15.561650276
434 1 0.0 25.233129501 16.648300171 14.616491318
435 1 0.0 15.714139938 20.404230118 14.281458855
436 1 0.0 19.669780731 16.706550598 22.030960083
437 1 0.0 21.943340302 23.396509171 13.687430382
438 1 0.0 33.788368225 15.378950119 20.272350311
439 1 0.0 26.978279114 12.42825985 17.089939117
440 1 0.0 22.37830925 17.127229691 22.198860168
441 1 0.0 27.301252365 17.54888916 12.861420631
442 1 0.0 31.915769577 16.302879333 16.431690216
443 1 0.0 23.596160889 15.495920181 16.747800827
444 1 0.0 26.459321976 15.121219635 25.258899689
445 1 0.0 21.270990372 11.415280342 25.103939056
446 1 0.0 24.761949539 16.03237915 29.825389862
447 1 0.0 22.090000153 13.160478592 15.156189919
448 1 0.0 19.606679916 14.188450813 28.531398773
449 1 0.0 25.496738434 16.498060226 32.791179657
450 1 0.0 27.24530983 14.133749962 33.336181641
451 1 0.0 29.554132462 15.589490891 34.743881226
452 1 0.0 29.058710098 18.488660812 37.105751038
453 1 0.0 20.849189758 22.029979706 38.297000885
454 1 0.0 29.990159988 22.989810944 38.766139984
455 1 0.0 21.933330536 13.786549568 26.800178528
456 1 0.0 30.791259766 25.608390808 38.337619781
457 1 0.0 26.517871857 10.189419746 22.312599182
458 1 0.0 28.425580978 26.34457016 19.356010437
459 1 0.0 28.157659531 25.826969147 14.336720467
460 1 0.0 24.925439835 26.354629517 16.66242981
461 1 0.0 20.402280807 20.965959549 14.586170197
462 1 0.0 27.149837494 22.101549149 23.035499573
463 1 0.0 28.132612228 17.23238945 28.031019211
464 1 0.0 24.40296936 20.36797905 16.691799164
465 1 0.0 30.273359299 10.845490456 26.367368698
466 1 0.0 32.299678802 25.517210007 26.567399979
467 1 0.0 36.608119965 15.077500343 25.077629089
468 1 0.0 27.256267548 16.934930801 23.005119324
469 1 0.0 19.266609192 16.934030533 28.977901459
470 1 0.0 25.727249146 19.83370018 22.593080521
471 1 0.0 32.22951889 18.213409424 30.729957581
472 1 0.0 32.203468323 22.431659698 32.790000916
473 1 0.0 29.718708038 14.819849968 31.888542175
474 1 0.0 29.427740097 22.243440628 31.709629059
475 1 0.0 28.432500839 19.245639801 34.574298859
476 1 0.0 27.072132111 25.775569916 33.858318329
477 1 0.0 30.22328949 21.542850494 34.208518982
478 1 0.0 33.750350952 18.08065033 34.803501129
479 1 0.0 31.46962738 20.755550385 37.726200104
480 1 0.0 31.047019958 23.280389786 36.169929504
481 1 0.0 24.326049805 24.496349335 14.876469612
482 1 0.0 29.524629593 19.538419724 12.879911423
483 1 0.0 28.678789139 23.018989563 14.689929962
484 1 0.0 20.817169189 31.90271759 12.681900024
485 1 0.0 26.991832733 18.049350739 25.540437698
486 1 0.0 33.117881775 23.615739822 19.704170227
487 1 0.0 21.575710297 19.905410767 17.236120224
488 1 0.0 23.108320236 19.462179184 20.872150421
489 1 0.0 22.777950287 12.749110222 19.771280289
490 1 0.0 25.705919266 25.487480164 19.130989075
491 1 0.0 22.480119705 13.447250366 29.620859146
492 1 0.0 23.31373024 19.44644928 23.703739166
493 1 0.0 24.324289322 18.745389938 26.076688766
494 1 0.0 25.073030472 17.309530258 21.118770599
495 1 0.0 29.044099808 14.822178841 23.484550476
496 1 0.0 27.916168213 25.812170029 27.062957764
497 1 0.0 24.442159653 20.972539902 35.538898468
498 1 0.0 26.32695961 19.302940369 28.09070015
499 1 0.0 23.298599243 29.99707222 37.869049072
500 1 0.0 22.074289322 26.31414032 32.852340698
501 1 0.0 22.476470947 22.682489395 34.102218628
502 1 0.0 25.4789505 23.805959702 35.313381195
503 1 0.0 25.388708115 27.649997711 39.022541046
504 1 0.0 19.533880234 30.659040451 38.149360657
505 1 0.0 22.961109161 27.217039108 14.45923996
506 1 0.0 19.329559326 33.689289093 14.90377903
507 1 0.0 25.741100311 28.5182724 18.50069046
508 1 0.0 33.502319336 27.069980621 22.274049759
509 1 0.0 25.638462067 26.966117859 14.063739777
510 1 0.0 23.140169144 21.495040894 18.886770248
511 1 0.0 20.355569839 20.813959122 19.662599564
512 1 0.0 25.776290894 31.236070633 23.188770294
513 1 0.0 23.274160385 21.903169632 21.648649216
514 1 0.0 23.031959534 30.302249908 23.280260086
515 1 0.0 22.681159973 29.088882446 32.496768951
516 1 0.0 24.695520401 29.435100555 30.649999619
517 1 0.0 24.77325058 21.86687088 32.987819672
518 1 0.0 24.479589462 21.972360611 24.103399277
519 1 0.0 29.943782806 24.035219193 26.901222229
520 1 0.0 21.185630798 30.405448914 30.245340347
521 1 0.0 25.924739838 36.221321106 33.825660706
522 1 0.0 32.448070526 31.835809708 35.16545105
523 1 0.0 29.463560104 30.73982048 28.476110458
524 1 0.0 22.164709091 24.135499954 28.707330704
525 1 0.0 22.984960556 25.187488556 35.381599426
526 1 0.0 23.557420731 27.055049896 37.242198944
527 1 0.0 26.042907715 30.591360092 38.716838837
528 1 0.0 20.942760468 28.361991882 37.711971283
529 1 0.0 26.927789688 24.310470581 16.316249847
530 1 0.0 31.023872375 28.053361893 20.41686058
531 1 0.0 35.059558868 30.233617783 16.384609222
532 1 0.0 29.614341736 24.995300293 16.604890823
533 1 0.0 28.427562714 29.043609619 19.015880585
534 1 0.0 34.184131622 35.638771057 24.638500214
535 1 0.0 30.25233078 32.980400085 16.590360641
536 1 0.0 27.210292816 35.651359558 20.443559647
537 1 0.0 16.127889633 32.172851563 21.994289398
538 1 0.0 16.662960052 26.42937088 23.118289948
539 1 0.0 25.100172043 24.641969681 28.127220154
540 1 0.0 35.534751892 33.476768494 28.56649971
541 1 0.0 24.429470062 23.159250259 30.441001892
542 1 0.0 26.559860229 29.757440567 25.406942368
543 1 0.0 26.357341766 27.73154068 31.978870392
544 1 0.0 35.920318604 36.55524826 27.196840286
545 1 0.0 25.402259827 28.845981598 36.197238922
546 1 0.0 25.672821045 36.435131073 28.264961243
547 1 0.0 31.656412125 30.164039612 26.969251633
548 1 0.0 26.726600647 32.913711548 37.428920746
549 1 0.0 13.904529572 24.478229523 30.276309967
550 1 0.0 28.808589935 30.977970123 38.859951019
551 1 0.0 18.098730087 28.247440338 36.972618103
552 1 0.0 26.214260101 34.302589417 29.82006073
553 1 0.0 28.029649734 20.565999985 15.204259872
554 1 0.0 27.125442505 21.266929626 12.671059608
555 1 0.0 28.137197495 28.641458511 14.160910606
556 1 0.0 23.603319168 36.130470276 16.036840439
557 1 0.0 24.405580521 35.719589233 18.845449448
558 1 0.0 31.457298279 35.815380096 19.709369659
559 1 0.0 26.857030869 33.767971039 22.965400696
560 1 0.0 18.983270645 32.508960724 22.14481926
561 1 0.0 22.334810257 33.504688263 27.131500244
562 1 0.0 26.531749725 26.314071655 23.445310593
563 1 0.0 25.632080078 27.164110184 26.040319443
564 1 0.0 24.804290771 37.360858917 21.085889816
565 1 0.0 20.253749847 33.392948151 19.949359894
566 1 0.0 24.304079056 31.479370117 25.880729675
567 1 0.0 30.862089157 38.111099243 27.4793396
568 1 0.0 23.400949478 39.217288971 25.054948807
569 1 0.0 25.854810715 40.602249146 25.982809067
570 1 0.0 24.441339493 31.620220184 36.144870758
571 1 0.0 37.511219025 35.588249207 24.98884964
572 1 0.0 28.357839584 36.893318176 27.585910797
573 1 0.0 24.044010162 37.179359436 30.681529999
574 1 0.0 26.816490173 31.770559311 28.181249619
575 1 0.0 21.902500153 34.624790192 36.461700439
576 1 0.0 25.227018356 29.804260254 33.58221817
577 1 0.0 29.799409866 13.056718826 21.350719452
578 1 0.0 22.095230103 15.919520378 14.179749489
579 1 0.0 26.755180359 16.913339615 19.061819077
580 1 0.0 28.169811249 14.46502018 19.233789444
581 1 0.0 37.123218536 21.1353302 18.540819168
582 1 0.0 31.526359558 15.226409912 21.928569794
583 1 0.0 27.205097198 10.151169777 25.122039795
584 1 0.0 34.385990143 16.788959503 17.991020203
585 1 0.0 36.947471619 19.478530884 20.871229172
586 1 0.0 30.24559021 20.496360779 21.735710144
587 1 0.0 24.723709106 10.587050438 19.277130127
588 1 0.0 33.847930908 13.516180038 25.266080856
589 1 0.0 28.241449356 18.600059509 20.858179092
590 1 0.0 38.880001068 20.201749802 26.037847519
591 1 0.0 26.243150711 19.380079269 36.669891357
592 1 0.0 20.796419144 11.396800041 28.265827179
593 1 0.0 28.733161926 12.988739967 25.541379929
594 1 0.0 24.008239746 12.568530083 17.155590057
595 1 0.0 26.026090622 12.404459953 26.267047882
596 1 0.0 34.497890472 17.081520081 32.218490601
597 1 0.0 19.138879776 13.394050598 25.934087753
598 1 0.0 29.600378036 14.791500092 28.907390594
599 1 0.0 32.760990143 19.705429077 32.965370178
600 1 0.0 39.083389282 18.088399887 27.69078064
601 1 0.0 25.815769196 19.25041008 14.403968811
602 1 0.0 36.63640976 15.015789986 21.818790436
603 1 0.0 39.523139954 20.080070496 20.036260605