# LAMMPS data file written by Ovito Basic 3.0.0-dev791
378 atoms
6 atom types
0.0 5.1499657631 xlo xhi
0.0 25.1000003815 ylo yhi
0.0 32.0 zlo zhi

Atoms  # charge

1 1 0.0 0.0 0.0 9.999999046
2 1 0.0 0.0 0.0 15.149965286
3 1 0.0 0.0 5.149965286 9.999999046
4 1 0.0 0.0 5.149965286 15.149965286
5 1 0.0 2.574982643 0.0 12.574981689
6 1 0.0 2.574982643 0.0 17.724946976
7 1 0.0 2.574982643 5.149965286 12.574981689
8 1 0.0 2.574982643 5.149965286 17.724946976
9 1 0.0 2.574982643 2.574982643 9.999999046
10 1 0.0 2.574982643 2.574982643 15.149965286
11 1 0.0 2.574982643 7.724948406 9.999999046
12 1 0.0 2.574982643 7.724948406 15.149965286
13 2 0.0 0.0 2.574982643 12.574981689
14 2 0.0 0.0 2.574982643 17.724946976
15 2 0.0 0.0 7.724948406 12.574981689
16 2 0.0 0.0 7.724948406 17.724946976
17 3 0.0 0.0 10.300000191 9.999999046
18 3 0.0 0.0 10.300000191 16.081798553
19 3 0.0 0.0 14.595118523 9.999999046
20 3 0.0 0.0 14.595118523 16.081798553
21 3 0.0 0.0 18.890230179 9.999999046
22 3 0.0 0.0 18.890230179 16.081798553
23 3 0.0 2.479789972 10.300000191 9.999999046
24 3 0.0 2.479789972 10.300000191 16.081798553
25 3 0.0 2.479789972 14.595118523 9.999999046
26 3 0.0 2.479789972 14.595118523 16.081798553
27 3 0.0 2.479789972 18.890230179 9.999999046
28 3 0.0 2.479789972 18.890230179 16.081798553
29 3 0.0 1.23988986 12.44756031 9.999999046
30 3 0.0 1.23988986 12.44756031 16.081798553
31 3 0.0 1.23988986 16.742668152 9.999999046
32 3 0.0 1.23988986 16.742668152 16.081798553
33 3 0.0 1.23988986 21.037788391 9.999999046
34 3 0.0 1.23988986 21.037788391 16.081798553
35 3 0.0 3.719679594 12.44756031 9.999999046
36 3 0.0 3.719679594 12.44756031 16.081798553
37 3 0.0 3.719679594 16.742668152 9.999999046
38 3 0.0 3.719679594 16.742668152 16.081798553
39 3 0.0 3.719679594 21.037788391 9.999999046
40 3 0.0 3.719679594 21.037788391 16.081798553
41 3 0.0 0.0 11.731710434 12.005378723
42 3 0.0 0.0 11.731710434 18.087177277
43 3 0.0 0.0 16.026830673 12.005378723
44 3 0.0 0.0 16.026830673 18.087177277
45 3 0.0 0.0 20.321939468 12.005378723
46 3 0.0 0.0 20.321939468 18.087177277
47 3 0.0 2.479789972 11.731710434 12.005378723
48 3 0.0 2.479789972 11.731710434 18.087177277
49 3 0.0 2.479789972 16.026830673 12.005378723
50 3 0.0 2.479789972 16.026830673 18.087177277
51 3 0.0 2.479789972 20.321939468 12.005378723
52 3 0.0 2.479789972 20.321939468 18.087177277
53 3 0.0 1.23988986 13.879268646 12.005378723
54 3 0.0 1.23988986 13.879268646 18.087177277
55 3 0.0 1.23988986 18.174377441 12.005378723
56 3 0.0 1.23988986 18.174377441 18.087177277
57 3 0.0 1.23988986 22.469497681 12.005378723
58 3 0.0 1.23988986 22.469497681 18.087177277
59 3 0.0 3.719679594 13.879268646 12.005378723
60 3 0.0 3.719679594 13.879268646 18.087177277
61 3 0.0 3.719679594 18.174377441 12.005378723
62 3 0.0 3.719679594 18.174377441 18.087177277
63 3 0.0 3.719679594 22.469497681 12.005378723
64 3 0.0 3.719679594 22.469497681 18.087177277
65 3 0.0 1.23988986 11.015849113 14.040979385
66 3 0.0 1.23988986 15.310970306 14.040979385
67 3 0.0 1.23988986 19.606077194 14.040979385
68 3 0.0 3.719679594 11.015849113 14.040979385
69 3 0.0 3.719679594 15.310970306 14.040979385
70 3 0.0 3.719679594 19.606077194 14.040979385
71 3 0.0 0.0 13.163408279 14.040979385
72 3 0.0 0.0 17.458518982 14.040979385
73 3 0.0 0.0 21.753637314 14.040979385
74 3 0.0 2.479789972 13.163408279 14.040979385
75 3 0.0 2.479789972 17.458518982 14.040979385
76 3 0.0 2.479789972 21.753637314 14.040979385
77 4 0.0 1.287490845 3.862473726 13.862473488
78 4 0.0 1.287490845 9.012438774 13.862473488
79 4 0.0 1.287490845 1.287490845 13.862473488
80 4 0.0 1.287490845 6.437457561 13.862473488
81 4 0.0 1.287490845 3.862473726 11.287490845
82 4 0.0 1.287490845 3.862473726 16.437456131
83 4 0.0 1.287490845 9.012438774 11.287490845
84 4 0.0 1.287490845 9.012438774 16.437456131
85 4 0.0 3.862473726 3.862473726 11.287490845
86 4 0.0 3.862473726 3.862473726 16.437456131
87 4 0.0 3.862473726 9.012438774 11.287490845
88 4 0.0 3.862473726 9.012438774 16.437456131
89 4 0.0 3.862473726 1.287490845 11.287490845
90 4 0.0 3.862473726 1.287490845 16.437456131
91 4 0.0 3.862473726 6.437457561 11.287490845
92 4 0.0 3.862473726 6.437457561 16.437456131
93 4 0.0 3.862473726 1.287490845 13.862473488
94 4 0.0 3.862473726 6.437457561 13.862473488
95 4 0.0 1.710724831 23.651165009 13.683879852
96 4 0.0 4.28572464 23.651165009 16.258878708
97 4 0.0 4.28572464 23.651165009 13.683879852
98 4 0.0 4.28572464 23.651165009 11.108880043
99 5 0.0 2.509977341 16.211605072 29.433380127
100 5 0.0 2.866639614 17.118793488 28.992134094
101 5 0.0 2.509967566 17.954519272 29.557157516
102 5 0.0 2.866630077 18.86170578 29.115907669
103 5 0.0 1.647888899 8.257715225 29.837860107
104 5 0.0 2.004557371 8.393403053 28.838222504
105 5 0.0 1.647889137 9.326955795 28.455907822
106 5 0.0 2.004557848 9.462636948 27.456268311
107 5 0.0 0.221624136 17.820568085 2.889221668
108 5 0.0 0.578288198 17.03793335 3.525756359
109 5 0.0 1.648288131 17.037927628 3.52575779
110 5 0.0 2.004950762 16.2552948 4.16229248
111 5 0.0 1.22552979 13.830515862 2.088311911
112 5 0.0 1.582196236 13.550767899 3.057553768
113 5 0.0 1.22552669 12.571507454 3.299909592
114 5 0.0 1.582194328 11.871993065 2.573021173
115 5 0.0 0.740153611 8.938521385 2.970519543
116 5 0.0 1.096815825 8.035459518 2.520885229
117 5 0.0 0.740151227 7.194535732 3.078144789
118 5 0.0 1.096814036 6.291473389 2.628512144
119 5 0.0 0.315317661 3.806441069 3.793470383
120 5 0.0 0.671985805 2.884026766 3.385011435
121 5 0.0 0.3153238 2.06908226 3.979618549
122 5 0.0 0.67199266 1.146666765 3.571161509
123 5 0.0 1.880228043 24.006235123 4.681828499
124 5 0.0 2.406315088 22.904468536 5.275204659
125 5 0.0 1.875236273 21.809108734 4.627403259
126 5 0.0 2.430647373 20.786899567 5.286034107
127 5 0.0 0.477494121 24.135843277 7.907227993
128 5 0.0 0.849292397 22.821249008 8.134507179
129 5 0.0 2.330572844 22.969652176 8.229264259
130 5 0.0 2.834840298 21.746519089 8.176784515
131 5 0.0 1.561255693 18.135175705 5.675500393
132 5 0.0 2.096400261 18.598953247 6.933200836
133 5 0.0 1.571280718 17.767974854 7.916397572
134 5 0.0 2.095449924 16.487474442 7.690839291
135 5 0.0 1.042057872 13.970111847 5.805707932
136 5 0.0 1.569439173 12.976003647 6.603133202
137 5 0.0 1.060287714 11.859218597 5.921995163
138 5 0.0 1.595927358 10.876081467 6.694759846
139 5 0.0 0.572310925 8.163921356 6.753674507
140 5 0.0 1.129652739 7.350670815 5.687867641
141 5 0.0 0.640164793 6.081188202 5.956041336
142 5 0.0 1.232746363 5.837234974 7.249400616
143 5 0.0 0.677781403 3.154978275 6.919795036
144 5 0.0 0.232242331 0.985312879 5.577007771
145 5 0.0 0.203356624 2.066119194 7.615134716
146 5 0.0 0.741553128 0.973593056 6.938751221
147 5 0.0 2.828434944 23.290718079 20.809370041
148 5 0.0 3.346778393 22.193603516 21.510457993
149 5 0.0 2.823507786 21.053482056 20.751541138
150 5 0.0 3.346185207 19.968902588 21.425405502
151 5 0.0 3.125645876 22.839351654 28.601238251
152 5 0.0 3.638750315 22.525323868 27.32204628
153 5 0.0 3.125994444 21.196321487 27.082933426
154 5 0.0 3.670461655 20.939741135 25.811620712
155 5 0.0 2.625721455 17.3704319 26.378995895
156 5 0.0 3.244343758 16.765199661 25.247636795
157 5 0.0 2.737389326 17.265352249 24.089054108
158 5 0.0 3.152412891 18.527111053 23.914718628
159 5 0.0 1.32968533 5.439714909 27.716480255
160 5 0.0 1.870907664 5.585477829 26.432891846
161 5 0.0 1.329927683 6.847823143 25.983251572
162 5 0.0 1.913389921 7.04660368 24.749679565
163 5 0.0 1.917955041 14.176255226 25.871648788
164 5 0.0 2.474083662 13.090966225 26.565000534
165 5 0.0 1.961735964 11.91768837 25.931848526
166 5 0.0 2.477720261 11.852360725 24.580308914
167 5 0.0 1.641608357 15.562742233 22.418979645
168 5 0.0 2.263714552 14.973899841 21.353097916
169 5 0.0 1.760133982 13.631883621 21.468650818
170 5 0.0 2.309312582 12.992388725 20.371959686
171 5 0.0 1.07904613 10.058012962 21.878412247
172 5 0.0 1.632663727 8.83455658 22.147413254
173 5 0.0 1.10506916 7.975893497 21.092166901
174 5 0.0 1.639727712 6.737046719 21.366252899
175 5 0.0 0.502780139 4.523931026 23.255374908
176 5 0.0 1.111515522 3.418100357 22.740823746
177 5 0.0 0.60235554 2.416314363 23.654022217
178 5 0.0 1.132929802 1.248664021 23.101156235
179 6 0.0 2.866648436 15.375879288 28.868356705
180 6 0.0 2.866642952 16.140140533 30.439651489
181 6 0.0 1.439977407 16.211601257 29.43337822
182 6 0.0 3.936639309 17.118797302 28.992136002
183 6 0.0 2.509972095 17.190258026 27.985862732
184 6 0.0 2.866632223 17.883058548 30.563430786
185 6 0.0 1.439967752 17.95451355 29.557157516
186 6 0.0 2.509961367 19.697433472 29.680925369
187 6 0.0 2.509962797 18.933162689 28.109636307
188 6 0.0 3.936630487 18.86170578 29.115907669
189 6 0.0 2.004556656 7.324161053 30.220174789
190 6 0.0 2.004552126 9.055584908 30.455188751
191 6 0.0 0.577889025 8.257714272 29.837854385
192 6 0.0 3.074557304 8.393403053 28.838226318
193 6 0.0 1.647892118 7.595532894 28.220891953
194 6 0.0 2.004551411 10.124829292 29.073232651
195 6 0.0 0.577889264 9.326954842 28.455905914
196 6 0.0 1.647890449 10.396192551 27.073953629
197 6 0.0 1.647895217 8.664764404 26.838943481
198 6 0.0 3.074557781 9.462636948 27.456268311
199 6 0.0 0.578286707 17.660627365 1.893174052
200 6 0.0 4.301589966 17.820571899 2.889222383
201 6 0.0 0.578296721 18.763134003 3.248735666
202 6 0.0 0.221616209 16.095367432 3.166243315
203 6 0.0 0.221624941 17.197874069 4.521803379
204 6 0.0 2.004952908 16.877988815 2.52971077
205 6 0.0 2.004960299 17.98049736 3.88527298
206 6 0.0 1.648281813 15.312724113 3.802782297
207 6 0.0 1.648283243 16.415233612 5.158338547
208 6 0.0 3.074950695 16.2552948 4.16229248
209 6 0.0 0.155529872 13.830523491 2.088311672
210 6 0.0 1.582201242 14.809776306 1.845956683
211 6 0.0 1.582193732 13.130996704 1.361425757
212 6 0.0 1.225533009 14.250287056 3.784440994
213 6 0.0 2.652196169 13.550760269 3.057554483
214 6 0.0 0.155526802 12.571509361 3.299910784
215 6 0.0 1.582191467 12.291762352 4.269152641
216 6 0.0 1.225525379 10.892731667 2.815376043
217 6 0.0 1.225531697 12.151740074 1.603777766
218 6 0.0 2.652194262 11.871993065 2.573021173
219 6 0.0 1.096817493 9.779445648 2.413260937
220 6 0.0 4.820119381 8.938526154 2.970525503
221 6 0.0 1.09682703 9.000654221 3.977407694
222 6 0.0 0.74014318 7.973325253 1.513997078
223 6 0.0 2.166815758 8.03545475 2.520881653
224 6 0.0 4.820116997 7.194539547 3.07814908
225 6 0.0 1.096823215 7.256669998 4.08503294
226 6 0.0 0.740145087 6.229333401 1.621623158
227 6 0.0 0.740146399 5.450551033 3.18577075
228 6 0.0 2.166814089 6.291473389 2.628512144
229 6 0.0 0.67197907 4.621386528 3.198864222
230 6 0.0 4.395283222 3.806439638 3.793472767
231 6 0.0 0.671987116 3.913910627 4.796534061
232 6 0.0 0.315316975 2.776555777 2.381947517
233 6 0.0 1.741985798 2.884027719 3.385011435
234 6 0.0 4.395289421 2.069080114 3.979619265
235 6 0.0 0.671991944 2.176553488 4.982682228
236 6 0.0 0.315325081 1.039194345 2.568097115
237 6 0.0 0.315329939 0.33172214 4.16576767
238 6 0.0 1.741992593 1.146666765 3.571161509
239 6 0.0 2.326380253 24.727651596 5.342885017
240 6 0.0 2.328860283 23.88212204 3.702057838
241 6 0.0 0.762718916 23.890382767 4.76309824
242 6 0.0 3.510127544 22.911128998 5.401810646
243 6 0.0 1.829140544 22.834653854 6.071290016
244 6 0.0 2.328305006 21.809217453 3.659160852
245 6 0.0 0.717118561 21.806171417 4.721835613
246 6 0.0 1.918011427 20.226696014 4.667107105
247 6 0.0 1.758223176 20.792787552 6.027110577
248 6 0.0 3.524162054 20.826059341 5.430026531
249 6 0.0 0.912750602 24.445011139 6.967940807
250 6 0.0 4.584167004 23.96998024 7.936376572
251 6 0.0 0.987711608 24.669586182 8.695610046
252 6 0.0 0.464246184 22.189050674 7.296429157
253 6 0.0 0.518066347 22.420768738 9.080194473
254 6 0.0 2.847019911 23.551073074 7.48332119
255 6 0.0 2.638009787 23.478504181 9.083436966
256 6 0.0 2.312232494 21.122344971 7.696131706
257 6 0.0 2.448144674 21.243091583 8.817942619
258 6 0.0 3.829241514 21.762649536 8.145536423
259 6 0.0 0.465016901 18.137054443 5.753268719
260 6 0.0 2.117409468 18.504987717 4.982890129
261 6 0.0 2.121940136 17.274431229 5.360400677
262 6 0.0 1.58980298 19.437479019 7.248071194
263 6 0.0 3.201230288 18.600715637 6.920512199
264 6 0.0 0.463328838 17.774194717 7.864269257
265 6 0.0 1.990305662 18.10373497 8.779813766
266 6 0.0 1.643912673 15.93538475 8.427280426
267 6 0.0 1.512981296 16.263954163 6.862995625
268 6 0.0 3.191596508 16.576709747 7.546494961
269 6 0.0 5.099767208 13.914637566 5.921174526
270 6 0.0 1.523241997 14.578756332 6.374009132
271 6 0.0 1.503516674 13.866923332 4.817124844
272 6 0.0 1.139136195 13.018659592 7.635802746
273 6 0.0 2.691414118 12.96897316 6.541755199
274 6 0.0 5.076156616 11.856248856 5.991471767
275 6 0.0 1.50142467 11.840413094 4.864974022
276 6 0.0 1.116677642 10.932016373 7.695431232
277 6 0.0 1.134727597 10.36445713 5.92092371
278 6 0.0 2.686344624 10.895443916 6.606040478
279 6 0.0 1.154666781 8.065896988 7.675266743
280 6 0.0 1.144061089 8.755579948 6.517551422
281 6 0.0 4.644079685 8.102680206 6.722103119
282 6 0.0 2.257674932 7.32305336 5.727030754
283 6 0.0 0.700348675 7.621225834 4.750092983
284 6 0.0 1.069681764 5.449581146 5.204210281
285 6 0.0 4.672678947 6.103166103 6.000669479
286 6 0.0 0.841080368 5.180925846 7.386450768
287 6 0.0 0.607079029 6.229856968 8.047877312
288 6 0.0 2.298374414 5.802734852 7.200396061
289 6 0.0 0.169443309 3.396624327 5.980919838
290 6 0.0 0.046623111 3.657552242 7.598928452
291 6 0.0 1.806666374 3.167239428 6.898612976
292 6 0.0 4.227466583 2.046486855 7.556841373
293 6 0.0 0.66010505 2.063578367 8.599018097
294 6 0.0 0.664624751 0.115200013 5.235390663
295 6 0.0 4.280364513 1.124157548 5.679720402
296 6 0.0 0.771259665 1.766803026 5.023471832
297 6 0.0 0.300342083 0.176319063 7.479811668
298 6 0.0 1.845129251 1.047966599 6.928524494
299 6 0.0 1.720671177 23.170343399 20.882097244
300 6 0.0 3.263625145 24.043514252 21.437459946
301 6 0.0 3.262628555 23.18662262 19.788702011
302 6 0.0 2.926066875 22.191665649 22.552476883
303 6 0.0 4.459858894 22.178983688 21.471546173
304 6 0.0 1.706086636 21.028816223 20.81918335
305 6 0.0 3.243778944 21.049339294 19.735721588
306 6 0.0 2.903082848 20.207708359 22.409065247
307 6 0.0 2.896931648 19.165182114 20.859485626
308 6 0.0 4.450206757 20.036323547 21.407312393
309 6 0.0 3.559650183 23.820430756 28.67342186
310 6 0.0 2.016459703 22.804052353 28.477626801
311 6 0.0 3.558312893 22.06360054 29.278051376
312 6 0.0 3.219765425 23.228460312 26.560676575
313 6 0.0 4.75571537 22.491682053 27.35830307
314 6 0.0 2.00275135 21.210371017 27.037561417
315 6 0.0 3.538784266 20.474042892 27.838939667
316 6 0.0 3.200311899 21.645856857 25.105768204
317 6 0.0 3.259313583 20.048994064 25.823793411
318 6 0.0 4.767195225 20.90196991 25.915016174
319 6 0.0 1.515003443 17.412137985 26.207723618
320 6 0.0 3.044708014 16.808765411 27.170387268
321 6 0.0 3.154238701 18.27035141 26.411672592
322 6 0.0 2.841443539 15.943207741 25.053194046
323 6 0.0 4.328391075 16.674949646 25.239009857
324 6 0.0 1.560947657 17.220256805 24.070703506
325 6 0.0 3.393570185 16.708314896 23.359354019
326 6 0.0 2.682375908 18.499364853 22.997068405
327 6 0.0 2.455441236 19.077802658 24.49725914
328 6 0.0 4.269181728 18.518798828 24.007097244
329 6 0.0 0.216511667 5.44725132 27.564489365
330 6 0.0 1.763034344 4.474889278 27.936267853
331 6 0.0 1.757174373 6.305994987 28.258358002
332 6 0.0 1.480973959 4.755160332 25.910865784
333 6 0.0 2.978830338 5.596514225 26.424913406
334 6 0.0 0.202460676 6.798107624 25.898834229
335 6 0.0 1.734072447 7.658341885 26.623456955
336 6 0.0 1.494113922 6.353941441 24.168195724
337 6 0.0 1.446007609 7.951776505 24.672971725
338 6 0.0 3.000191927 6.96896553 24.767583847
339 6 0.0 0.826610506 14.138650894 25.720310211
340 6 0.0 2.280273438 14.907320023 26.552209854
341 6 0.0 2.508412123 14.145956039 24.943099976
342 6 0.0 2.045776367 13.117599487 27.553009033
343 6 0.0 3.594825268 13.140546799 26.487440109
344 6 0.0 0.843736351 11.968067169 25.898981094
345 6 0.0 2.399783134 11.126254082 26.506547928
346 6 0.0 1.870729923 12.554071426 24.034261703
347 6 0.0 2.094654083 10.93710804 24.358522415
348 6 0.0 3.581480265 12.006424904 24.603796005
349 6 0.0 1.930766106 16.547386169 22.091144562
350 6 0.0 0.563076973 15.507369995 22.431804657
351 6 0.0 2.127726793 15.062264442 23.273584366
352 6 0.0 1.858685136 15.455637932 20.437755585
353 6 0.0 3.386464596 14.99575901 21.463775635
354 6 0.0 0.636725247 13.626638412 21.447685242
355 6 0.0 2.229233503 13.172062874 22.310409546
356 6 0.0 1.898912191 13.539219856 19.564285278
357 6 0.0 1.846982241 12.074895859 20.501695633
358 6 0.0 3.410204172 13.068630219 20.471185684
359 6 0.0 1.503990412 10.553144455 22.656429291
360 6 0.0 1.532108426 10.259345055 20.922117233
361 6 0.0 5.12555933 9.926939964 21.953971863
362 6 0.0 2.749388456 8.797463417 22.197681427
363 6 0.0 1.103392839 8.555583 23.010620117
364 6 0.0 1.520664692 8.289422989 20.140781403
365 6 0.0 5.128312588 7.923905373 21.172933578
366 6 0.0 1.1745224 6.130551815 20.609659195
367 6 0.0 1.163910866 6.710056305 22.317258835
368 6 0.0 2.741428614 6.784218788 21.422870636
369 6 0.0 1.016299009 4.985294342 22.595399857
370 6 0.0 4.57411623 4.547250748 23.231658936
371 6 0.0 0.928594589 4.570788383 24.177350998
372 6 0.0 0.710797191 3.288006067 21.700569153
373 6 0.0 2.256161928 3.482745171 22.816646576
374 6 0.0 4.63236618 2.426415682 23.616283417
375 6 0.0 1.026974678 2.585280895 24.685157776
376 6 0.0 0.695524812 0.597358227 23.828632355
377 6 0.0 0.693970144 1.216499686 22.073230743
378 6 0.0 2.242240429 1.390728951 23.161417007
