 LAMMPS input for trinclinic P-1 TATB unitcell

 48     atoms
 120    bonds
 72     angles
 96     dihedrals
 0      impropers

 5      atom types
 6      bond types
 8      angle types
 6      dihedral types
 0      improper types

 0.0   8.93997              xlo xhi
 0.0   7.76972              ylo yhi
 0.0   6.42472              zlo zhi
 -4.50124 0.53013 -2.90917  xy xz yz

 Masses

 1 12.010
 2 12.010
 3 14.007
 4 15.999
 5 1.0079

 Atoms               

           1           1           1         0.25350        0.41597E+01        0.53570E+00        0.16498E+01
           2           1           2        -0.21750        0.34713E+01        0.18060E+01        0.16190E+01
           3           1           2        -0.21750        0.34574E+01       -0.70331E+00        0.15978E+01
           4           1           3         0.69000        0.55726E+01        0.52362E+00        0.17314E+01
           5           1           1         0.25350        0.20423E+01        0.17898E+01        0.15689E+01
           6           1           3        -0.73200        0.41305E+01        0.29265E+01        0.16171E+01
           7           1           1         0.25350        0.20210E+01       -0.66679E+00        0.15978E+01
           8           1           3        -0.73200        0.40880E+01       -0.18340E+01        0.15348E+01
           9           1           4        -0.43000        0.61990E+01       -0.53755E+00        0.16967E+01
          10           1           4        -0.43000        0.62195E+01        0.15641E+01        0.18117E+01
          11           1           2        -0.21750        0.12994E+01        0.56471E+00        0.16132E+01
          12           1           3         0.69000        0.13304E+01        0.30170E+01        0.15098E+01
          13           1           5         0.43300        0.50394E+01        0.28757E+01        0.14391E+01
          14           1           5         0.43300        0.36877E+01        0.36722E+01        0.15676E+01
          15           1           3         0.69000        0.13079E+01       -0.18777E+01        0.15849E+01
          16           1           5         0.43300        0.36853E+01       -0.25589E+01        0.16704E+01
          17           1           5         0.43300        0.49448E+01       -0.18034E+01        0.15290E+01
          18           1           3        -0.73200       -0.37077E-02        0.58796E+00        0.16562E+01
          19           1           4        -0.43000        0.19341E+01        0.41033E+01        0.15335E+01
          20           1           4        -0.43000        0.94209E-01        0.30506E+01        0.14802E+01
          21           1           4        -0.43000        0.83564E-01       -0.18992E+01        0.16222E+01
          22           1           4        -0.43000        0.18976E+01       -0.29594E+01        0.15271E+01
          23           1           5         0.43300       -0.52696E+00        0.14987E+01        0.16318E+01
          24           1           5         0.43300       -0.42693E+00       -0.31886E-01        0.16318E+01
          25           2           1         0.25350        0.80908E+00        0.43248E+01        0.47748E+01
          26           2           2        -0.21750        0.14974E+01        0.30545E+01        0.48056E+01
          27           2           2        -0.21750        0.15114E+01        0.55638E+01        0.48268E+01
          28           2           3         0.69000       -0.60380E+00        0.43369E+01        0.46932E+01
          29           2           1         0.25350        0.29264E+01        0.30706E+01        0.48558E+01
          30           2           3        -0.73200        0.83833E+00        0.19340E+01        0.48076E+01
          31           2           1         0.25350        0.29477E+01        0.55273E+01        0.48268E+01
          32           2           3        -0.73200        0.88079E+00        0.66945E+01        0.48898E+01
          33           2           4        -0.43000       -0.12301E+01        0.53980E+01        0.47279E+01
          34           2           4        -0.43000       -0.12506E+01        0.32964E+01        0.46129E+01
          35           2           2        -0.21750        0.36693E+01        0.42958E+01        0.48114E+01
          36           2           3         0.69000        0.36384E+01        0.18434E+01        0.49149E+01
          37           2           5         0.43300       -0.70561E-01        0.19847E+01        0.49855E+01
          38           2           5         0.43300        0.12811E+01        0.11882E+01        0.48570E+01
          39           2           3         0.69000        0.36609E+01        0.67382E+01        0.48397E+01
          40           2           5         0.43300        0.12835E+01        0.74195E+01        0.47542E+01
          41           2           5         0.43300        0.24042E-01        0.66640E+01        0.48956E+01
          42           2           3        -0.73200        0.49725E+01        0.42725E+01        0.47684E+01
          43           2           4        -0.43000        0.30347E+01        0.75716E+00        0.48911E+01
          44           2           4        -0.43000        0.48746E+01        0.18099E+01        0.49444E+01
          45           2           4        -0.43000        0.48852E+01        0.67597E+01        0.48024E+01
          46           2           4        -0.43000        0.30712E+01        0.78200E+01        0.48975E+01
          47           2           5         0.43300        0.54958E+01        0.33617E+01        0.47928E+01
          48           2           5         0.43300        0.53958E+01        0.48924E+01        0.47928E+01

 Bonds               

           1           1           1           2
           2           1           1           3
           3           2           1           4
           4           1           5           2
           5           3           2           6
           6           1           7           3
           7           3           3           8
           8           4           4           9
           9           4           4          10
          10           1           5          11
          11           2           5          12
          12           5           6          13
          13           5           6          14
          14           1           7          11
          15           2           7          15
          16           5           8          16
          17           5           8          17
          18           3          11          18
          19           4          12          19
          20           4          12          20
          21           4          15          21
          22           4          15          22
          23           5          18          23
          24           5          18          24
          25           6           9          13
          26           6           9          14
          27           6           9          16
          28           6           9          17
          29           6           9          23
          30           6           9          24
          31           6          10          13
          32           6          10          14
          33           6          10          16
          34           6          10          17
          35           6          10          23
          36           6          10          24
          37           6          19          13
          38           6          19          14
          39           6          19          16
          40           6          19          17
          41           6          19          23
          42           6          19          24
          43           6          20          13
          44           6          20          14
          45           6          20          16
          46           6          20          17
          47           6          20          23
          48           6          20          24
          49           6          21          13
          50           6          21          14
          51           6          21          16
          52           6          21          17
          53           6          21          23
          54           6          21          24
          55           6          22          13
          56           6          22          14
          57           6          22          16
          58           6          22          17
          59           6          22          23
          60           6          22          24
          61           1          25          26
          62           1          25          27
          63           2          25          28
          64           1          29          26
          65           3          26          30
          66           1          31          27
          67           3          27          32
          68           4          28          33
          69           4          28          34
          70           1          29          35
          71           2          29          36
          72           5          30          37
          73           5          30          38
          74           1          31          35
          75           2          31          39
          76           5          32          40
          77           5          32          41
          78           3          35          42
          79           4          36          43
          80           4          36          44
          81           4          39          45
          82           4          39          46
          83           5          42          47
          84           5          42          48
          85           6          33          37
          86           6          33          38
          87           6          33          40
          88           6          33          41
          89           6          33          47
          90           6          33          48
          91           6          34          37
          92           6          34          38
          93           6          34          40
          94           6          34          41
          95           6          34          47
          96           6          34          48
          97           6          43          37
          98           6          43          38
          99           6          43          40
         100           6          43          41
         101           6          43          47
         102           6          43          48
         103           6          44          37
         104           6          44          38
         105           6          44          40
         106           6          44          41
         107           6          44          47
         108           6          44          48
         109           6          45          37
         110           6          45          38
         111           6          45          40
         112           6          45          41
         113           6          45          47
         114           6          45          48
         115           6          46          37
         116           6          46          38
         117           6          46          40
         118           6          46          41
         119           6          46          47
         120           6          46          48

 Angles              

           1           1           2           1           3
           2           2           2           1           4
           3           2           3           1           4
           4           3           1           2           5
           5           4           1           2           6
           6           4           5           2           6
           7           3           1           3           7
           8           4           1           3           8
           9           4           7           3           8
          10           5           1           4           9
          11           5           1           4          10
          12           6           9           4          10
          13           1           2           5          11
          14           2           2           5          12
          15           2          11           5          12
          16           7           2           6          13
          17           7           2           6          14
          18           8          13           6          14
          19           1           3           7          11
          20           2           3           7          15
          21           2          11           7          15
          22           7           3           8          16
          23           7           3           8          17
          24           8          16           8          17
          25           3           5          11           7
          26           4           5          11          18
          27           4           7          11          18
          28           5           5          12          19
          29           5           5          12          20
          30           6          19          12          20
          31           5           7          15          21
          32           5           7          15          22
          33           6          21          15          22
          34           7          11          18          23
          35           7          11          18          24
          36           8          23          18          24
          37           1          26          25          27
          38           2          26          25          28
          39           2          27          25          28
          40           3          25          26          29
          41           4          25          26          30
          42           4          29          26          30
          43           3          25          27          31
          44           4          25          27          32
          45           4          31          27          32
          46           5          25          28          33
          47           5          25          28          34
          48           6          33          28          34
          49           1          26          29          35
          50           2          26          29          36
          51           2          35          29          36
          52           7          26          30          37
          53           7          26          30          38
          54           8          37          30          38
          55           1          27          31          35
          56           2          27          31          39
          57           2          35          31          39
          58           7          27          32          40
          59           7          27          32          41
          60           8          40          32          41
          61           3          29          35          31
          62           4          29          35          42
          63           4          31          35          42
          64           5          29          36          43
          65           5          29          36          44
          66           6          43          36          44
          67           5          31          39          45
          68           5          31          39          46
          69           6          45          39          46
          70           7          35          42          47
          71           7          35          42          48
          72           8          47          42          48

 Dihedrals           

           1           1           3           1           2           5
           2           2           3           1           2           6
           3           3           4           1           2           5
           4           4           4           1           2           6
           5           1           2           1           3           7
           6           2           2           1           3           8
           7           3           4           1           3           7
           8           4           4           1           3           8
           9           5           2           1           4           9
          10           5           2           1           4          10
          11           5           3           1           4           9
          12           5           3           1           4          10
          13           1          11           5           2           1
          14           3          12           5           2           1
          15           2          11           5           2           6
          16           4          12           5           2           6
          17           6           1           2           6          13
          18           6           1           2           6          14
          19           6           5           2           6          13
          20           6           5           2           6          14
          21           1          11           7           3           1
          22           3          15           7           3           1
          23           2          11           7           3           8
          24           4          15           7           3           8
          25           6           1           3           8          16
          26           6           1           3           8          17
          27           6           7           3           8          16
          28           6           7           3           8          17
          29           1           2           5          11           7
          30           2           2           5          11          18
          31           3          12           5          11           7
          32           4          12           5          11          18
          33           5           2           5          12          19
          34           5           2           5          12          20
          35           5          11           5          12          19
          36           5          11           5          12          20
          37           1           3           7          11           5
          38           2           3           7          11          18
          39           3          15           7          11           5
          40           4          15           7          11          18
          41           5           3           7          15          21
          42           5           3           7          15          22
          43           5          11           7          15          21
          44           5          11           7          15          22
          45           6           5          11          18          23
          46           6           5          11          18          24
          47           6           7          11          18          23
          48           6           7          11          18          24
          49           1          27          25          26          29
          50           2          27          25          26          30
          51           3          28          25          26          29
          52           4          28          25          26          30
          53           1          26          25          27          31
          54           2          26          25          27          32
          55           3          28          25          27          31
          56           4          28          25          27          32
          57           5          26          25          28          33
          58           5          26          25          28          34
          59           5          27          25          28          33
          60           5          27          25          28          34
          61           1          35          29          26          25
          62           3          36          29          26          25
          63           2          35          29          26          30
          64           4          36          29          26          30
          65           6          25          26          30          37
          66           6          25          26          30          38
          67           6          29          26          30          37
          68           6          29          26          30          38
          69           1          35          31          27          25
          70           3          39          31          27          25
          71           2          35          31          27          32
          72           4          39          31          27          32
          73           6          25          27          32          40
          74           6          25          27          32          41
          75           6          31          27          32          40
          76           6          31          27          32          41
          77           1          26          29          35          31
          78           2          26          29          35          42
          79           3          36          29          35          31
          80           4          36          29          35          42
          81           5          26          29          36          43
          82           5          26          29          36          44
          83           5          35          29          36          43
          84           5          35          29          36          44
          85           1          27          31          35          29
          86           2          27          31          35          42
          87           3          39          31          35          29
          88           4          39          31          35          42
          89           5          27          31          39          45
          90           5          27          31          39          46
          91           5          35          31          39          45
          92           5          35          31          39          46
          93           6          29          35          42          47
          94           6          29          35          42          48
          95           6          31          35          42          47
          96           6          31          35          42          48
