#Input file for lammps
 
3550 atoms
3 atom types
 
0.0 164 xlo xhi
0.0 164 ylo yhi
0.0 164 zlo zhi
 
Masses
 
1 1.008
2 12
3 14
 
Atoms
 
      1 1 0       68.407      81.3696      60.6467
      2 2 0      68.6021      81.9175       61.573
      3 1 0      67.6649      81.8767      62.1374
      4 2 0       69.761        81.19      62.3958
      5 1 0      69.5165      80.1441      62.5735
      6 1 0      70.6866      81.1572      61.8327
      7 2 0      69.9634      81.9197      63.7267
      8 1 0        69.04      81.9108      64.3107
      9 2 0      71.0988      81.1771      64.5076
     10 1 0      70.8462      80.1328      64.6768
     11 1 0      72.0184      81.1505      63.9312
     12 2 0      71.3124      81.9288      65.8624
     13 1 0        70.39      81.9234      66.4507
     14 2 0      72.4466      81.1755      66.6301
     15 1 0      72.1897       80.131      66.7949
     16 1 0      73.3641      81.1478      66.0498
     17 2 0      72.6602      81.9276      67.9847
     18 1 0      71.7365      81.9228      68.5721
     19 2 0      73.7953      81.1715       68.748
     20 1 0      73.5361      80.1273      68.9137
     21 1 0      74.7119      81.1433      68.1677
     22 2 0      74.0063      81.9223      70.1017
     23 1 0       73.081      81.9208      70.6835
     24 2 0      75.1391       81.163      70.8729
     25 1 0      74.8874      80.1227      71.0414
     26 1 0       76.058      81.1372      70.2964
     27 2 0      74.4245      83.3058      69.8837
     28 3 0      74.7584      84.4094      69.7101
     29 2 0      73.0552      83.3145      67.7274
     30 3 0      73.3686      84.4141      67.5232
     31 2 0      71.7108      83.3151      65.6116
     32 3 0      72.0272      84.4158      65.4127
     33 2 0      70.3719      83.3156      63.4975
     34 3 0      70.6934      84.4147      63.3171
     35 2 0      68.9991      83.3402      61.2762
     36 3 0      69.3033      84.4311      61.0487
     37 2 0       75.339      81.9384      72.2189
     38 1 0      74.4204       81.936      72.8122
     39 2 0      76.4775      81.1892      72.9846
     40 1 0      76.2212      80.1429      73.1486
     41 1 0      77.3941       81.159      72.4047
     42 2 0      76.6857      81.9371      74.3397
     43 1 0      75.7634      81.9277      74.9263
     44 2 0      77.8217      81.1791      75.1026
     45 1 0      77.5653      80.1342      75.2661
     46 1 0      78.7385      81.1521      74.5212
     47 2 0      78.0346      81.9315      76.4568
     48 1 0      77.1112      81.9256      77.0435
     49 2 0      79.1691      81.1757      77.2215
     50 1 0      78.9108      80.1314      77.3849
     51 1 0      80.0856      81.1485      76.6396
     52 2 0      79.3807      81.9295      78.5756
     53 1 0       78.457      81.9241      79.1618
     54 2 0      80.5166      81.1725      79.3386
     55 1 0      80.2565      80.1281       79.503
     56 1 0      81.4326      81.1444      78.7569
     57 2 0      80.7272      81.9235      80.6914
     58 1 0      79.8008      81.9222      81.2732
     59 2 0        81.86      81.1636      81.4626
     60 1 0      81.6078      80.1244      81.6308
     61 1 0      82.7783      81.1386      80.8857
     62 2 0       81.145      83.3071      80.4728
     63 3 0      81.4784      84.4107      80.2988
     64 2 0      79.7761      83.3159      78.3177
     65 3 0      80.0895      84.4154      78.1132
     66 2 0      78.4316      83.3177      76.2024
     67 3 0      78.7467      84.4182      76.0004
     68 2 0      77.0948      83.3239      74.1035
     69 3 0      77.4191      84.4232      73.9166
     70 2 0      75.7036      83.3156      71.8846
     71 3 0       75.989      84.4122      71.6108
     72 2 0      82.0591      81.9397      82.8079
     73 1 0      81.1407      81.9372      83.4018
     74 2 0      83.1978      81.1907      83.5743
     75 1 0      82.9416      80.1441      83.7381
     76 1 0      84.1145      81.1602      82.9943
     77 2 0      83.4062      81.9384       84.929
     78 1 0      82.4836       81.929      85.5158
     79 2 0      84.5424      81.1804      85.6928
     80 1 0      84.2856      80.1353      85.8555
     81 1 0      85.4588      81.1534      85.1106
     82 2 0      84.7548      81.9326      87.0464
     83 1 0      83.8318      81.9268       87.633
     84 2 0      85.8893       81.177      87.8106
     85 1 0      85.6312      80.1325      87.9745
     86 1 0       86.806      81.1497      87.2292
     87 2 0      86.1009       81.931       89.165
     88 1 0      85.1776      81.9254      89.7513
     89 2 0      87.2372      81.1737      89.9284
     90 1 0      86.9769      80.1295      90.0926
     91 1 0      88.1529      81.1457      89.3465
     92 2 0      87.4477      81.9245      91.2806
     93 1 0       86.521      81.9235       91.863
     94 2 0      88.5803      81.1646      92.0519
     95 1 0      88.3282      80.1256      92.2202
     96 1 0      89.4987      81.1398      91.4752
     97 2 0      87.8653      83.3085      91.0621
     98 3 0      88.1987      84.4122      90.8882
     99 2 0      86.4961      83.3172      88.9069
    100 3 0      86.8096      84.4167      88.7022
    101 2 0      85.1519      83.3191       86.792
    102 3 0       85.467      84.4195      86.5899
    103 2 0      83.8155      83.3251      84.6935
    104 3 0        84.14      84.4245       84.507
    105 2 0      82.4244      83.3169      82.4745
    106 3 0      82.7099      84.4134       82.201
    107 2 0      88.7799      81.9408      93.3972
    108 1 0      87.8607      81.9385      93.9916
    109 2 0      89.9181      81.1915      94.1634
    110 1 0       89.662      80.1454      94.3275
    111 1 0      90.8348      81.1613      93.5837
    112 2 0      90.1271      81.9392      95.5182
    113 1 0      89.2035      81.9302      96.1055
    114 2 0      91.2625      81.1814      96.2816
    115 1 0       91.006      80.1367      96.4448
    116 1 0      92.1792      81.1546      95.6999
    117 2 0      91.4752      81.9341      97.6358
    118 1 0       90.552       81.928      98.2222
    119 2 0      92.6101      81.1781      98.4008
    120 1 0      92.3514      80.1337      98.5637
    121 1 0      93.5263      81.1508      97.8183
    122 2 0      92.8217      81.9317      99.7544
    123 1 0      91.8976      81.9265      100.341
    124 2 0      93.9573      81.1748      100.517
    125 1 0      93.6972      80.1305      100.682
    126 1 0      94.8733      81.1468      99.9357
    127 2 0      94.1677      81.9257      101.871
    128 1 0       93.242      81.9244      102.452
    129 2 0         95.3      81.1669      102.641
    130 1 0      95.0486      80.1262       102.81
    131 1 0      96.2193      81.1408      102.065
    132 2 0      94.5856      83.3095      101.652
    133 3 0      94.9195      84.4131      101.478
    134 2 0       93.217      83.3184      99.4966
    135 3 0      93.5304      84.4179      99.2921
    136 2 0      91.8725      83.3201      97.3816
    137 3 0      92.1879      84.4206      97.1798
    138 2 0      90.5356      83.3263      95.2823
    139 3 0      90.8596      84.4257      95.0953
    140 2 0      89.1446       83.318      93.0635
    141 3 0      89.4305      84.4147      92.7906
    142 1 0      95.4386      81.6672      103.599
    143 1 0      96.5837       62.752      97.3952
    144 2 0      97.5051      63.3055      97.5974
    145 1 0      98.2545      62.5444      97.8373
    146 2 0      97.9493      64.1086      96.2908
    147 1 0      98.0425      63.4419      95.4353
    148 1 0      97.1944      64.8262      95.9906
    149 2 0      99.2832      64.8093      96.5634
    150 1 0      100.053      64.0776      96.8216
    151 2 0      99.6901      65.5789      95.2624
    152 1 0      99.7771      64.9044      94.4136
    153 1 0      98.9245      66.2922      94.9732
    154 2 0      101.047      66.3028      95.5447
    155 1 0      101.821      65.5742      95.8045
    156 2 0       101.44      67.0645      94.2376
    157 1 0      101.524      66.3856      93.3913
    158 1 0      100.671      67.7749       93.949
    159 2 0      102.798      67.7887      94.5202
    160 1 0      103.571      67.0591      94.7813
    161 2 0      103.186      68.5493      93.2112
    162 1 0      103.271      67.8686       92.366
    163 1 0      102.417      69.2587      92.9226
    164 2 0      104.543      69.2704       93.494
    165 1 0      105.311      68.5401      93.7599
    166 2 0      104.939      70.0286      92.1815
    167 1 0      105.025      69.3568      91.3359
    168 1 0      104.173      70.7416      91.8932
    169 2 0      104.415      70.2381      94.5819
    170 3 0      104.313      71.0103      95.4496
    171 2 0      102.637       68.732      95.6294
    172 3 0       102.51        69.48      96.5087
    173 2 0      100.893      67.2497      96.6505
    174 3 0       100.77      68.0016      97.5284
    175 2 0      99.1481      65.7726      97.6688
    176 3 0      99.0419      66.5309      98.5392
    177 2 0      97.3107      64.2613      98.7457
    178 3 0      97.1618      64.9941      99.6262
    179 2 0      106.294      70.7501      92.4923
    180 1 0      107.072      70.0269      92.7521
    181 2 0      106.684      71.5172      91.1874
    182 1 0      106.767      70.8379      90.3394
    183 1 0      105.916      72.2257      90.8969
    184 2 0      108.043      72.2348      91.4685
    185 1 0      108.814      71.5041      91.7251
    186 2 0       108.43      72.9952      90.1576
    187 1 0      108.512      72.3163      89.3109
    188 1 0       107.66      73.7051      89.8701
    189 2 0      109.787      73.7188      90.4408
    190 1 0       110.56      72.9888      90.7009
    191 2 0      110.177      74.4792       89.132
    192 1 0       110.26      73.7989      88.2868
    193 1 0      109.407      75.1886      88.8446
    194 2 0      111.534      75.2023       89.417
    195 1 0      112.306      74.4722      89.6779
    196 2 0      111.922      75.9631       88.107
    197 1 0      112.006      75.2814      87.2623
    198 1 0      111.152      76.6717       87.819
    199 2 0      113.278      76.6839      88.3903
    200 1 0      114.047      75.9527      88.6568
    201 2 0      113.674      77.4418      87.0773
    202 1 0      113.761      76.7699      86.2329
    203 1 0      112.908      78.1546        86.79
    204 2 0       113.15      77.6512      89.4787
    205 3 0      113.047       78.423      90.3466
    206 2 0      111.373      76.1456      90.5258
    207 3 0      111.246      76.8935      91.4051
    208 2 0      109.629      74.6639      91.5478
    209 3 0      109.504      75.4142      92.4268
    210 2 0        107.9      73.1934      92.5671
    211 3 0      107.787      73.9533      93.4378
    212 2 0      106.064      71.6513      93.6221
    213 3 0      105.876      72.3635      94.5255
    214 2 0      115.029      78.1629      87.3891
    215 1 0      115.807      77.4398      87.6487
    216 2 0       115.42      78.9303      86.0843
    217 1 0      115.502      78.2509       85.236
    218 1 0      114.651      79.6387      85.7934
    219 2 0      116.778      79.6478      86.3651
    220 1 0      117.549       78.917      86.6218
    221 2 0      117.166      80.4086      85.0539
    222 1 0      117.248      79.7293      84.2075
    223 1 0      116.395      81.1181      84.7668
    224 2 0      118.523      81.1316      85.3373
    225 1 0      119.295       80.402      85.5974
    226 2 0      118.912       81.892      84.0289
    227 1 0      118.995       81.212      83.1832
    228 1 0      118.142      82.6017      83.7412
    229 2 0       120.27      82.6152       84.314
    230 1 0      121.041      81.8854      84.5744
    231 2 0      120.658      83.3764      83.0034
    232 1 0      120.741      82.6945       82.159
    233 1 0      119.887      84.0848      82.7157
    234 2 0      122.013      84.0968      83.2868
    235 1 0      122.782      83.3656      83.5535
    236 2 0      122.409      84.8547      81.9738
    237 1 0      122.496       84.183      81.1296
    238 1 0      121.644      85.5676      81.6866
    239 2 0      121.885      85.0642      84.3755
    240 3 0      121.783      85.8359      85.2435
    241 2 0      120.108      83.5583      85.4227
    242 3 0       119.98      84.3063       86.302
    243 2 0      118.364      82.0769      86.4446
    244 3 0      118.239      82.8272      87.3235
    245 2 0      116.635      80.6067      87.4635
    246 3 0      116.522      81.3669      88.3341
    247 2 0        114.8      79.0647      88.5185
    248 3 0      114.611       79.777      89.4218
    249 2 0      123.763      85.5761      82.2856
    250 1 0      124.543      84.8526      82.5454
    251 2 0      124.155       86.343      80.9806
    252 1 0      124.237      85.6639      80.1327
    253 1 0      123.386      87.0516        80.69
    254 2 0      125.512      87.0611      81.2613
    255 1 0      126.285      86.3296      81.5186
    256 2 0      125.901      87.8212      79.9506
    257 1 0      125.983      87.1423      79.1043
    258 1 0       125.13      88.5311      79.6634
    259 2 0      127.258      88.5447      80.2342
    260 1 0       128.03      87.8148      80.4942
    261 2 0      127.648      89.3055       78.925
    262 1 0       127.73      88.6248        78.08
    263 1 0      126.877      90.0146      78.6378
    264 2 0      129.004      90.0284      79.2101
    265 1 0      129.777       89.298      79.4712
    266 2 0      129.392       90.789      77.9002
    267 1 0      129.476      90.1073      77.0555
    268 1 0      128.622      91.4977      77.6123
    269 2 0      130.749      91.5095      78.1834
    270 1 0      131.517      90.7789      78.4497
    271 2 0      131.144      92.2675      76.8717
    272 1 0      131.231      91.5957      76.0256
    273 1 0      130.379      92.9806      76.5829
    274 2 0       130.62       92.477       79.272
    275 3 0      130.518      93.2493      80.1395
    276 2 0      128.844      90.9717       80.319
    277 3 0      128.716      91.7197      81.1983
    278 2 0        127.1        89.49       81.341
    279 3 0      126.974      90.2406      82.2197
    280 2 0       125.37      88.0194      82.3603
    281 3 0      125.257      88.7791      83.2313
    282 2 0      123.535      86.4775      83.4153
    283 3 0      123.347      87.1902      84.3184
    284 1 0      132.103      92.7543      77.0489
    285 1 0      44.0336      74.0133      35.1968
    286 2 0      43.7729      72.9558      35.0961
    287 1 0      43.5873      72.6041      36.1161
    288 2 0      42.4441      72.8088      34.2232
    289 1 0      41.6327      73.4001      34.6442
    290 1 0      42.5787      73.2102      33.2253
    291 2 0      42.0461      71.3315      34.1625
    292 1 0      41.8674      70.9432      35.1681
    293 2 0      40.7393      71.2263       33.307
    294 1 0      39.9366       71.823      33.7343
    295 1 0      40.8886      71.6334      32.3117
    296 2 0       40.339      69.7161      33.2368
    297 1 0      40.1596      69.3222      34.2415
    298 2 0      39.0335       69.628      32.3815
    299 1 0      38.2345      70.2281      32.8121
    300 1 0      39.1849      70.0387      31.3877
    301 2 0      38.6335      68.1176      32.3111
    302 1 0      38.4555       67.724      33.3169
    303 2 0      37.3287      68.0345      31.4546
    304 1 0      36.5298      68.6339      31.8876
    305 1 0        37.48      68.4455      30.4618
    306 2 0      36.9289      66.5257      31.3868
    307 1 0      36.7573       66.134      32.3927
    308 2 0      35.6172      66.4392      30.5345
    309 1 0      34.8176      67.0336        30.96
    310 1 0      35.7672      66.8458      29.5398
    311 2 0      37.9692      65.7278      30.7407
    312 3 0      38.7988       65.091      30.2252
    313 2 0      39.7074      67.3468        31.68
    314 3 0       40.559      66.7359      31.1794
    315 2 0      41.4074      68.9409      32.6036
    316 3 0      42.2556      68.3253      32.1008
    317 2 0      43.1049      70.5336      33.5221
    318 3 0      43.9387      69.9053       33.018
    319 2 0      44.8981      72.1895      34.4507
    320 3 0      45.7608      71.6018      33.9559
    321 2 0      35.2427      64.9197      30.4725
    322 1 0      35.0614        64.52      31.4741
    323 2 0      33.9406        64.83      29.6122
    324 1 0      33.1406      65.4321      30.0423
    325 1 0      34.0901      65.2422      28.6197
    326 2 0      33.5384      63.3224      29.5476
    327 1 0      33.3572      62.9325      30.5527
    328 2 0      32.2323      63.2408      28.6906
    329 1 0      31.4337      63.8423      29.1205
    330 1 0      32.3852      63.6519      27.6971
    331 2 0      31.8329      61.7306      28.6207
    332 1 0      31.6545      61.3382      29.6263
    333 2 0      30.5276      61.6463       27.765
    334 1 0      29.7299      62.2475      28.1968
    335 1 0      30.6806      62.0579      26.7719
    336 2 0      30.1295      60.1352      27.6962
    337 1 0      29.9519      59.7429      28.7019
    338 2 0      28.8241      60.0529      26.8391
    339 1 0      28.0262      60.6534      27.2727
    340 1 0      28.9766      60.4651      25.8466
    341 2 0      28.4252      58.5447      26.7714
    342 1 0       28.254       58.153      27.7783
    343 2 0       27.113      58.4586      25.9192
    344 1 0      26.3145      59.0525      26.3451
    345 1 0       27.264      58.8649      24.9248
    346 2 0       29.466      57.7471      26.1256
    347 3 0      30.2961      57.1107      25.6104
    348 2 0      31.2034      59.3653      27.0647
    349 3 0      32.0551      58.7546       26.564
    350 2 0       32.904      60.9582      27.9882
    351 3 0      33.7543      60.3449      27.4862
    352 2 0      34.5951      62.5358      28.9067
    353 3 0      35.4326       61.912      28.3986
    354 2 0      36.3673       64.213      29.8583
    355 3 0      37.2688      63.6559      29.3727
    356 2 0      26.7396      56.9391      25.8577
    357 1 0      26.5579       56.539      26.8592
    358 2 0      25.4372      56.8488      24.9972
    359 1 0       24.637      57.4512      25.4273
    360 1 0      25.5866      57.2613      24.0047
    361 2 0       25.035      55.3416      24.9326
    362 1 0      24.8539      54.9516      25.9379
    363 2 0      23.7284      55.2594      24.0754
    364 1 0      22.9302      55.8615      24.5056
    365 1 0      23.8818       55.671      23.0822
    366 2 0      23.3293      53.7497       24.006
    367 1 0       23.151      53.3574      25.0111
    368 2 0      22.0245      53.6657      23.1502
    369 1 0      21.2263      54.2665      23.5817
    370 1 0      22.1771      54.0769      22.1569
    371 2 0      21.6264      52.1542      23.0814
    372 1 0      21.4484       51.762      24.0868
    373 2 0      20.3204      52.0718       22.224
    374 1 0      19.5228      52.6724      22.6577
    375 1 0      20.4731      52.4841      21.2316
    376 2 0      19.9217      50.5642      22.1563
    377 1 0      19.7504      50.1719      23.1636
    378 2 0      18.6096       50.478      21.3043
    379 1 0      17.8111      51.0717      21.7301
    380 1 0      18.7605      50.8841      20.3099
    381 2 0      20.9629      49.7663      21.5106
    382 3 0      21.7929      49.1298      20.9955
    383 2 0      22.7003      51.3845        22.45
    384 3 0      23.5521       50.774      21.9492
    385 2 0      24.4006      52.9771      23.3734
    386 3 0      25.2509       52.364      22.8713
    387 2 0      26.0913      54.5545      24.2915
    388 3 0      26.9285      53.9304      23.7833
    389 2 0      27.8634      56.2317       25.243
    390 3 0      28.7647      55.6745      24.7574
    391 2 0      18.2361      48.9584      21.2423
    392 1 0      18.0543       48.558      22.2447
    393 2 0      16.9337      48.8686      20.3824
    394 1 0      16.1338      49.4703      20.8123
    395 1 0       17.083      49.2806      19.3898
    396 2 0      16.5314      47.3612      20.3171
    397 1 0      16.3504      46.9706      21.3234
    398 2 0      15.2253      47.2792      19.4606
    399 1 0       14.427      47.8806      19.8906
    400 1 0      15.3784      47.6903      18.4672
    401 2 0      14.8261      45.7688      19.3909
    402 1 0      14.6477      45.3767      20.3963
    403 2 0      13.5204      45.6844      18.5349
    404 1 0      12.7231      46.2859      18.9669
    405 1 0      13.6739      46.0964      17.5419
    406 2 0      13.1225      44.1738      18.4661
    407 1 0      12.9451      43.7813      19.4722
    408 2 0      11.8173      44.0915      17.6092
    409 1 0      11.0193      44.6919      18.0428
    410 1 0      11.9697      44.5034      16.6166
    411 2 0       11.418      42.5831      17.5418
    412 1 0       11.247      42.1916       18.548
    413 2 0      10.1074      42.4967      16.6897
    414 1 0      9.30721      43.0913      17.1152
    415 1 0      10.2569      42.9035      15.6947
    416 2 0      12.4593      41.7856      16.8958
    417 3 0      13.2887      41.1486      16.3802
    418 2 0      14.1966      43.4035      17.8346
    419 3 0      15.0482      42.7929      17.3339
    420 2 0      15.8969      44.9962      18.7583
    421 3 0       16.747      44.3829       18.256
    422 2 0      17.5883      46.5742      19.6767
    423 3 0      18.4259      45.9504      19.1689
    424 2 0      19.3603      48.2513      20.6282
    425 3 0      20.2613      47.6935      20.1423
    426 1 0      9.80431      41.4502      16.6567
    427 1 0      9.56939      93.7461      133.106
    428 2 0      10.4721      94.3583      133.187
    429 1 0      10.8436      94.1946      134.204
    430 2 0      11.5582      93.8605      132.128
    431 1 0      11.7627       92.798      132.248
    432 1 0      11.1912      93.9498      131.112
    433 2 0      12.8443       94.671      132.311
    434 1 0      13.2352      94.5418      133.323
    435 2 0      13.8859      94.1526      131.264
    436 1 0      14.0803        93.09       131.39
    437 1 0      13.5043      94.2466      130.252
    438 2 0      15.1958      94.9877      131.445
    439 1 0       15.591      94.8623      132.457
    440 2 0      16.2251       94.458      130.394
    441 1 0      16.4144      93.3944      130.524
    442 1 0      15.8394      94.5504      129.383
    443 2 0      17.5349      95.2935      130.575
    444 1 0      17.9288      95.1685      131.589
    445 2 0      18.5603      94.7611      129.522
    446 1 0        18.75      93.6974      129.655
    447 1 0      18.1744      94.8528      128.512
    448 2 0      19.8688      95.5948      129.706
    449 1 0      20.2567      95.4725       130.72
    450 2 0      20.9016      95.0591      128.656
    451 1 0      21.0952      94.0006      128.782
    452 1 0      20.5197      95.1537      127.645
    453 2 0      19.6335       97.016      129.458
    454 3 0      19.4462      98.1498      129.261
    455 2 0      17.2565      96.7128      130.343
    456 3 0      17.0355       97.838      130.158
    457 2 0      14.9245      96.4072       131.21
    458 3 0      14.7092      97.5342      131.024
    459 2 0      12.5952      96.1025      132.073
    460 3 0      12.3992      97.2296      131.885
    461 2 0      10.1528      95.8114       132.95
    462 3 0      9.90796      96.9257      132.768
    463 2 0      22.1985       95.915      128.852
    464 1 0      22.5991      95.7934      129.862
    465 2 0      23.2264        95.39      127.798
    466 1 0      23.4151      94.3245      127.926
    467 1 0      22.8411      95.4798      126.787
    468 2 0      24.5359      96.2205      127.983
    469 1 0      24.9297       96.091      128.995
    470 2 0      25.5612      95.6863      126.929
    471 1 0      25.7493      94.6222      127.058
    472 1 0      25.1741      95.7792      125.919
    473 2 0      26.8704      96.5219      127.111
    474 1 0      27.2638      96.3958      128.124
    475 2 0       27.897      95.9897      126.059
    476 1 0      28.0846      94.9259       126.19
    477 1 0      27.5094      96.0822      125.049
    478 2 0      29.2058      96.8264      126.242
    479 1 0      29.5985      96.7008      127.255
    480 2 0       30.231      96.2932      125.189
    481 1 0      30.4193      95.2291      125.321
    482 1 0      29.8436      96.3848      124.179
    483 2 0      31.5386       97.127      125.372
    484 1 0      31.9262      97.0047      126.387
    485 2 0      32.5714      96.5908      124.322
    486 1 0      32.7646      95.5332      124.449
    487 1 0       32.189      96.6861      123.312
    488 2 0      31.3027      98.5483      125.125
    489 3 0      31.1148       99.682      124.928
    490 2 0      28.9268      98.2452      126.009
    491 3 0      28.7056      99.3704      125.825
    492 2 0      26.5952      97.9408      126.877
    493 3 0      26.3767      99.0674      126.692
    494 2 0      24.2808      97.6428      127.742
    495 3 0       24.079      98.7702       127.55
    496 2 0      21.8395      97.3164      128.632
    497 3 0      21.5454      98.4312       128.46
    498 2 0      33.8675      97.4472      124.519
    499 1 0      34.2686      97.3256      125.529
    500 2 0       34.896      96.9225      123.465
    501 1 0      35.0847      95.8567      123.593
    502 1 0      34.5106      97.0119      122.454
    503 2 0      36.2052      97.7527       123.65
    504 1 0      36.5991      97.6233      124.662
    505 2 0      37.2313      97.2186      122.596
    506 1 0      37.4187      96.1543      122.725
    507 1 0      36.8436      97.3114      121.586
    508 2 0        38.54      98.0539      122.778
    509 1 0      38.9333      97.9279      123.791
    510 2 0       39.566      97.5219      121.726
    511 1 0      39.7543       96.458      121.857
    512 1 0       39.179      97.6145      120.716
    513 2 0      40.8751      98.3589      121.909
    514 1 0      41.2681       98.233      122.922
    515 2 0      41.9009      97.8254      120.855
    516 1 0      42.0888      96.7615      120.988
    517 1 0      41.5132      97.9171      119.846
    518 2 0      43.2078       98.659      121.038
    519 1 0      43.5959       98.537      122.054
    520 2 0      44.2407      98.1228      119.989
    521 1 0       44.434      97.0654      120.116
    522 1 0      43.8584      98.2182      118.979
    523 2 0      42.9718      100.081      120.792
    524 3 0      42.7841      101.214      120.595
    525 2 0      40.5959      99.7774      121.676
    526 3 0      40.3745      100.903      121.492
    527 2 0      38.2647      99.4732      122.544
    528 3 0      38.0461        100.6      122.358
    529 2 0      35.9508       99.175      123.408
    530 3 0      35.7494      100.303      123.217
    531 2 0      33.5095      98.8488      124.298
    532 3 0      33.2156      99.9635      124.126
    533 2 0      45.5369      98.9794      120.185
    534 1 0      45.9383      98.8577      121.196
    535 2 0      46.5651      98.4542      119.131
    536 1 0       46.754      97.3891       119.26
    537 1 0        46.18       98.544      118.121
    538 2 0      47.8745      99.2846      119.316
    539 1 0      48.2686      99.1554      120.329
    540 2 0      48.9001      98.7506      118.263
    541 1 0       49.088      97.6866      118.392
    542 1 0      48.5128      98.8436      117.253
    543 2 0      50.2093      99.5863      118.445
    544 1 0      50.6024      99.4601      119.457
    545 2 0      51.2362      99.0541      117.393
    546 1 0      51.4233      97.9901      117.524
    547 1 0      50.8481      99.1465      116.383
    548 2 0      52.5445      99.8906      117.575
    549 1 0      52.9373      99.7651      118.589
    550 2 0      53.5697      99.3574      116.522
    551 1 0      53.7581      98.2934      116.655
    552 1 0      53.1824      99.4492      115.512
    553 2 0      54.8776      100.191      116.706
    554 1 0      55.2649      100.069       117.72
    555 2 0      55.9095      99.6559      115.657
    556 1 0      56.1034       98.597      115.783
    557 1 0      55.5278      99.7502      114.645
    558 2 0      54.6413      101.613      116.459
    559 3 0      54.4543      102.746      116.261
    560 2 0      52.2657       101.31      117.343
    561 3 0      52.0445      102.435      117.158
    562 2 0      49.9344      101.005      118.211
    563 3 0      49.7161      102.132      118.025
    564 2 0      47.6196      100.707      119.075
    565 3 0      47.4176      101.835      118.884
    566 2 0      45.1784      100.381      119.965
    567 3 0      44.8852      101.496      119.793
    568 1 0      56.8362      100.214      115.792
    569 1 0      46.8906      113.698       79.032
    570 2 0      47.5259      112.819      79.1722
    571 1 0      47.9241      112.907      80.1882
    572 2 0      46.6454      111.493      79.0501
    573 1 0      45.8062      111.516      79.7432
    574 1 0      46.1839      111.412      78.0727
    575 2 0      47.5314      110.276      79.3321
    576 1 0      47.9585       110.34      80.3359
    577 2 0       46.636      108.998      79.2107
    578 1 0      45.7992      109.033      79.9046
    579 1 0      46.1794      108.931       78.228
    580 2 0      47.5436      107.755      79.4887
    581 1 0      47.9744      107.815      80.4926
    582 2 0      46.6359      106.488      79.3652
    583 1 0      45.7994      106.529        80.06
    584 1 0      46.1781      106.426      78.3825
    585 2 0      47.5439      105.246      79.6429