# LAMMPS data file written by Ovito Basic 3.0.0-dev791
1168 atoms
2 atom types
0.0 21.3249378204 xlo xhi
0.0 21.3249378204 ylo yhi
0.0 28.0463848114 zlo zhi

Atoms  # charge

1 1 0.0 0.0 0.0 27.169933319
2 1 0.0 0.0 0.0 23.664134979
3 1 0.0 0.0 0.0 20.158336639
4 1 0.0 0.0 0.0 16.652540207
5 1 0.0 17.866836548 0.576349616 27.169933319
6 1 0.0 17.866836548 0.576349616 23.664134979
7 1 0.0 17.866836548 0.576349616 20.158336639
8 1 0.0 17.866836548 0.576349616 16.652540207
9 1 0.0 18.443187714 4.034447193 27.169933319
10 1 0.0 18.443187714 4.034447193 23.664134979
11 1 0.0 18.443187714 4.034447193 20.158336639
12 1 0.0 18.443187714 4.034447193 16.652540207
13 1 0.0 19.019538879 7.492545128 27.169933319
14 1 0.0 19.019538879 7.492545128 23.664134979
15 1 0.0 19.019538879 7.492545128 20.158336639
16 1 0.0 19.019538879 7.492545128 16.652540207
17 1 0.0 19.595888138 10.950642586 27.169933319
18 1 0.0 19.595888138 10.950642586 23.664134979
19 1 0.0 19.595888138 10.950642586 20.158336639
20 1 0.0 19.595888138 10.950642586 16.652540207
21 1 0.0 20.172237396 14.408740997 27.169933319
22 1 0.0 20.172237396 14.408740997 23.664134979
23 1 0.0 20.172237396 14.408740997 20.158336639
24 1 0.0 20.172237396 14.408740997 16.652540207
25 1 0.0 20.748586655 17.866836548 27.169933319
26 1 0.0 20.748586655 17.866836548 23.664134979
27 1 0.0 20.748586655 17.866836548 20.158336639
28 1 0.0 20.748586655 17.866836548 16.652540207
29 1 0.0 0.576349616 3.458097458 27.169933319
30 1 0.0 0.576349616 3.458097458 23.664134979
31 1 0.0 0.576349616 3.458097458 20.158336639
32 1 0.0 0.576349616 3.458097458 16.652540207
33 1 0.0 1.152699232 6.916194916 27.169933319
34 1 0.0 1.152699232 6.916194916 23.664134979
35 1 0.0 1.152699232 6.916194916 20.158336639
36 1 0.0 1.152699232 6.916194916 16.652540207
37 1 0.0 1.729048729 10.374293327 27.169933319
38 1 0.0 1.729048729 10.374293327 23.664134979
39 1 0.0 1.729048729 10.374293327 20.158336639
40 1 0.0 1.729048729 10.374293327 16.652540207
41 1 0.0 2.305398464 13.832389832 27.169933319
42 1 0.0 2.305398464 13.832389832 23.664134979
43 1 0.0 2.305398464 13.832389832 20.158336639
44 1 0.0 2.305398464 13.832389832 16.652540207
45 1 0.0 2.881747961 17.290487289 27.169933319
46 1 0.0 2.881747961 17.290487289 23.664134979
47 1 0.0 2.881747961 17.290487289 20.158336639
48 1 0.0 2.881747961 17.290487289 16.652540207
49 1 0.0 3.458097458 20.748586655 27.169933319
50 1 0.0 3.458097458 20.748586655 23.664134979
51 1 0.0 3.458097458 20.748586655 20.158336639
52 1 0.0 3.458097458 20.748586655 16.652540207
53 1 0.0 4.034447193 2.881747961 27.169933319
54 1 0.0 4.034447193 2.881747961 23.664134979
55 1 0.0 4.034447193 2.881747961 20.158336639
56 1 0.0 4.034447193 2.881747961 16.652540207
57 1 0.0 4.610796928 6.339845657 27.169933319
58 1 0.0 4.610796928 6.339845657 23.664134979
59 1 0.0 4.610796928 6.339845657 20.158336639
60 1 0.0 4.610796928 6.339845657 16.652540207
61 1 0.0 5.187146664 9.797944069 27.169933319
62 1 0.0 5.187146664 9.797944069 23.664134979
63 1 0.0 5.187146664 9.797944069 20.158336639
64 1 0.0 5.187146664 9.797944069 16.652540207
65 1 0.0 5.763495922 13.256040573 27.169933319
66 1 0.0 5.763495922 13.256040573 23.664134979
67 1 0.0 5.763495922 13.256040573 20.158336639
68 1 0.0 5.763495922 13.256040573 16.652540207
69 1 0.0 6.339845657 16.714138031 27.169933319
70 1 0.0 6.339845657 16.714138031 23.664134979
71 1 0.0 6.339845657 16.714138031 20.158336639
72 1 0.0 6.339845657 16.714138031 16.652540207
73 1 0.0 6.916194916 20.172237396 27.169933319
74 1 0.0 6.916194916 20.172237396 23.664134979
75 1 0.0 6.916194916 20.172237396 20.158336639
76 1 0.0 6.916194916 20.172237396 16.652540207
77 1 0.0 7.492545128 2.305398464 27.169933319
78 1 0.0 7.492545128 2.305398464 23.664134979
79 1 0.0 7.492545128 2.305398464 20.158336639
80 1 0.0 7.492545128 2.305398464 16.652540207
81 1 0.0 8.068894386 5.763495922 27.169933319
82 1 0.0 8.068894386 5.763495922 23.664134979
83 1 0.0 8.068894386 5.763495922 20.158336639
84 1 0.0 8.068894386 5.763495922 16.652540207
85 1 0.0 8.645243645 9.221593857 27.169933319
86 1 0.0 8.645243645 9.221593857 23.664134979
87 1 0.0 8.645243645 9.221593857 20.158336639
88 1 0.0 8.645243645 9.221593857 16.652540207
89 1 0.0 9.221593857 12.679691315 27.169933319
90 1 0.0 9.221593857 12.679691315 23.664134979
91 1 0.0 9.221593857 12.679691315 20.158336639
92 1 0.0 9.221593857 12.679691315 16.652540207
93 1 0.0 9.797944069 16.137788773 27.169933319
94 1 0.0 9.797944069 16.137788773 23.664134979
95 1 0.0 9.797944069 16.137788773 20.158336639
96 1 0.0 9.797944069 16.137788773 16.652540207
97 1 0.0 10.374293327 19.595888138 27.169933319
98 1 0.0 10.374293327 19.595888138 23.664134979
99 1 0.0 10.374293327 19.595888138 20.158336639
100 1 0.0 10.374293327 19.595888138 16.652540207
101 1 0.0 10.950642586 1.729048729 27.169933319
102 1 0.0 10.950642586 1.729048729 23.664134979
103 1 0.0 10.950642586 1.729048729 20.158336639
104 1 0.0 10.950642586 1.729048729 16.652540207
105 1 0.0 11.526991844 5.187146664 27.169933319
106 1 0.0 11.526991844 5.187146664 23.664134979
107 1 0.0 11.526991844 5.187146664 20.158336639
108 1 0.0 11.526991844 5.187146664 16.652540207
109 1 0.0 12.103342056 8.645243645 27.169933319
110 1 0.0 12.103342056 8.645243645 23.664134979
111 1 0.0 12.103342056 8.645243645 20.158336639
112 1 0.0 12.103342056 8.645243645 16.652540207
113 1 0.0 12.679691315 12.103342056 27.169933319
114 1 0.0 12.679691315 12.103342056 23.664134979
115 1 0.0 12.679691315 12.103342056 20.158336639
116 1 0.0 12.679691315 12.103342056 16.652540207
117 1 0.0 13.256040573 15.561439514 27.169933319
118 1 0.0 13.256040573 15.561439514 23.664134979
119 1 0.0 13.256040573 15.561439514 20.158336639
120 1 0.0 13.256040573 15.561439514 16.652540207
121 1 0.0 13.832389832 19.019538879 27.169933319
122 1 0.0 13.832389832 19.019538879 23.664134979
123 1 0.0 13.832389832 19.019538879 20.158336639
124 1 0.0 13.832389832 19.019538879 16.652540207
125 1 0.0 14.408740997 1.152699232 27.169933319
126 1 0.0 14.408740997 1.152699232 23.664134979
127 1 0.0 14.408740997 1.152699232 20.158336639
128 1 0.0 14.408740997 1.152699232 16.652540207
129 1 0.0 14.985090256 4.610796928 27.169933319
130 1 0.0 14.985090256 4.610796928 23.664134979
131 1 0.0 14.985090256 4.610796928 20.158336639
132 1 0.0 14.985090256 4.610796928 16.652540207
133 1 0.0 15.561439514 8.068894386 27.169933319
134 1 0.0 15.561439514 8.068894386 23.664134979
135 1 0.0 15.561439514 8.068894386 20.158336639
136 1 0.0 15.561439514 8.068894386 16.652540207
137 1 0.0 16.137788773 11.526991844 27.169933319
138 1 0.0 16.137788773 11.526991844 23.664134979
139 1 0.0 16.137788773 11.526991844 20.158336639
140 1 0.0 16.137788773 11.526991844 16.652540207
141 1 0.0 16.714138031 14.985090256 27.169933319
142 1 0.0 16.714138031 14.985090256 23.664134979
143 1 0.0 16.714138031 14.985090256 20.158336639
144 1 0.0 16.714138031 14.985090256 16.652540207
145 1 0.0 17.290487289 18.443187714 27.169933319
146 1 0.0 17.290487289 18.443187714 23.664134979
147 1 0.0 17.290487289 18.443187714 20.158336639
148 1 0.0 17.290487289 18.443187714 16.652540207
149 1 0.0 0.288174808 1.729048729 25.417034149
150 1 0.0 0.288174808 1.729048729 21.911235809
151 1 0.0 0.288174808 1.729048729 18.405437469
152 1 0.0 0.288174808 1.729048729 14.899640083
153 1 0.0 18.155012131 2.305398226 25.417034149
154 1 0.0 18.155012131 2.305398226 21.911235809
155 1 0.0 18.155012131 2.305398226 18.405437469
156 1 0.0 18.155012131 2.305398226 14.899640083
157 1 0.0 18.731363297 5.763496399 25.417034149
158 1 0.0 18.731363297 5.763496399 21.911235809
159 1 0.0 18.731363297 5.763496399 18.405437469
160 1 0.0 18.731363297 5.763496399 14.899640083
161 1 0.0 19.307712555 9.221592903 25.417034149
162 1 0.0 19.307712555 9.221592903 21.911235809
163 1 0.0 19.307712555 9.221592903 18.405437469
164 1 0.0 19.307712555 9.221592903 14.899640083
165 1 0.0 19.884061813 12.679691315 25.417034149
166 1 0.0 19.884061813 12.679691315 21.911235809
167 1 0.0 19.884061813 12.679691315 18.405437469
168 1 0.0 19.884061813 12.679691315 14.899640083
169 1 0.0 20.460411072 16.137788773 25.417034149
170 1 0.0 20.460411072 16.137788773 21.911235809
171 1 0.0 20.460411072 16.137788773 18.405437469
172 1 0.0 20.460411072 16.137788773 14.899640083
173 1 0.0 21.03676033 19.595888138 25.417034149
174 1 0.0 21.03676033 19.595888138 21.911235809
175 1 0.0 21.03676033 19.595888138 18.405437469
176 1 0.0 21.03676033 19.595888138 14.899640083
177 1 0.0 0.864524484 5.187146664 25.417034149
178 1 0.0 0.864524484 5.187146664 21.911235809
179 1 0.0 0.864524484 5.187146664 18.405437469
180 1 0.0 0.864524484 5.187146664 14.899640083
181 1 0.0 1.4408741 8.645243645 25.417034149
182 1 0.0 1.4408741 8.645243645 21.911235809
183 1 0.0 1.4408741 8.645243645 18.405437469
184 1 0.0 1.4408741 8.645243645 14.899640083
185 1 0.0 2.017223597 12.103342056 25.417034149
186 1 0.0 2.017223597 12.103342056 21.911235809
187 1 0.0 2.017223597 12.103342056 18.405437469
188 1 0.0 2.017223597 12.103342056 14.899640083
189 1 0.0 2.593573332 15.561439514 25.417034149
190 1 0.0 2.593573332 15.561439514 21.911235809
191 1 0.0 2.593573332 15.561439514 18.405437469
192 1 0.0 2.593573332 15.561439514 14.899640083
193 1 0.0 3.169922829 19.019538879 25.417034149
194 1 0.0 3.169922829 19.019538879 21.911235809
195 1 0.0 3.169922829 19.019538879 18.405437469
196 1 0.0 3.169922829 19.019538879 14.899640083
197 1 0.0 3.746272564 1.152698517 25.417034149
198 1 0.0 3.746272564 1.152698517 21.911235809
199 1 0.0 3.746272564 1.152698517 18.405437469
200 1 0.0 3.746272564 1.152698517 14.899640083
201 1 0.0 4.322622299 4.610796452 25.417034149
202 1 0.0 4.322622299 4.610796452 21.911235809
203 1 0.0 4.322622299 4.610796452 18.405437469
204 1 0.0 4.322622299 4.610796452 14.899640083
205 1 0.0 4.898972034 8.068894386 25.417034149
206 1 0.0 4.898972034 8.068894386 21.911235809
207 1 0.0 4.898972034 8.068894386 18.405437469
208 1 0.0 4.898972034 8.068894386 14.899640083
209 1 0.0 5.475321293 11.526991844 25.417034149
210 1 0.0 5.475321293 11.526991844 21.911235809
211 1 0.0 5.475321293 11.526991844 18.405437469
212 1 0.0 5.475321293 11.526991844 14.899640083
213 1 0.0 6.051670551 14.985090256 25.417034149
214 1 0.0 6.051670551 14.985090256 21.911235809
215 1 0.0 6.051670551 14.985090256 18.405437469
216 1 0.0 6.051670551 14.985090256 14.899640083
217 1 0.0 6.628020287 18.443187714 25.417034149
218 1 0.0 6.628020287 18.443187714 21.911235809
219 1 0.0 6.628020287 18.443187714 18.405437469
220 1 0.0 6.628020287 18.443187714 14.899640083
221 1 0.0 7.204369545 0.576349258 25.417034149
222 1 0.0 7.204369545 0.576349258 21.911235809
223 1 0.0 7.204369545 0.576349258 18.405437469
224 1 0.0 7.204369545 0.576349258 14.899640083
225 1 0.0 7.780719757 4.034447193 25.417034149
226 1 0.0 7.780719757 4.034447193 21.911235809
227 1 0.0 7.780719757 4.034447193 18.405437469
228 1 0.0 7.780719757 4.034447193 14.899640083
229 1 0.0 8.357069016 7.492544651 25.417034149
230 1 0.0 8.357069016 7.492544651 21.911235809
231 1 0.0 8.357069016 7.492544651 18.405437469
232 1 0.0 8.357069016 7.492544651 14.899640083
233 1 0.0 8.933418274 10.950642586 25.417034149
234 1 0.0 8.933418274 10.950642586 21.911235809
235 1 0.0 8.933418274 10.950642586 18.405437469
236 1 0.0 8.933418274 10.950642586 14.899640083
237 1 0.0 9.50976944 14.408740997 25.417034149
238 1 0.0 9.50976944 14.408740997 21.911235809
239 1 0.0 9.50976944 14.408740997 18.405437469
240 1 0.0 9.50976944 14.408740997 14.899640083
241 1 0.0 10.086118698 17.866838455 25.417034149
242 1 0.0 10.086118698 17.866838455 21.911235809
243 1 0.0 10.086118698 17.866838455 18.405437469
244 1 0.0 10.086118698 17.866838455 14.899640083
245 1 0.0 10.662467957 0.0 25.417034149
246 1 0.0 10.662467957 0.0 21.911235809
247 1 0.0 10.662467957 0.0 18.405437469
248 1 0.0 10.662467957 0.0 14.899640083
249 1 0.0 11.238817215 3.458097458 25.417034149
250 1 0.0 11.238817215 3.458097458 21.911235809
251 1 0.0 11.238817215 3.458097458 18.405437469
252 1 0.0 11.238817215 3.458097458 14.899640083
253 1 0.0 11.815166473 6.916194916 25.417034149
254 1 0.0 11.815166473 6.916194916 21.911235809
255 1 0.0 11.815166473 6.916194916 18.405437469
256 1 0.0 11.815166473 6.916194916 14.899640083
257 1 0.0 12.391516685 10.374293327 25.417034149
258 1 0.0 12.391516685 10.374293327 21.911235809
259 1 0.0 12.391516685 10.374293327 18.405437469
260 1 0.0 12.391516685 10.374293327 14.899640083
261 1 0.0 12.967865944 13.832391739 25.417034149
262 1 0.0 12.967865944 13.832391739 21.911235809
263 1 0.0 12.967865944 13.832391739 18.405437469
264 1 0.0 12.967865944 13.832391739 14.899640083
265 1 0.0 13.544215202 17.290487289 25.417034149
266 1 0.0 13.544215202 17.290487289 21.911235809
267 1 0.0 13.544215202 17.290487289 18.405437469
268 1 0.0 13.544215202 17.290487289 14.899640083
269 1 0.0 14.120564461 20.748586655 25.417034149
270 1 0.0 14.120564461 20.748586655 21.911235809
271 1 0.0 14.120564461 20.748586655 18.405437469
272 1 0.0 14.120564461 20.748586655 14.899640083
273 1 0.0 14.696915627 2.881747961 25.417034149
274 1 0.0 14.696915627 2.881747961 21.911235809
275 1 0.0 14.696915627 2.881747961 18.405437469
276 1 0.0 14.696915627 2.881747961 14.899640083
277 1 0.0 15.273264885 6.339845657 25.417034149
278 1 0.0 15.273264885 6.339845657 21.911235809
279 1 0.0 15.273264885 6.339845657 18.405437469
280 1 0.0 15.273264885 6.339845657 14.899640083
281 1 0.0 15.849614143 9.797944069 25.417034149
282 1 0.0 15.849614143 9.797944069 21.911235809
283 1 0.0 15.849614143 9.797944069 18.405437469
284 1 0.0 15.849614143 9.797944069 14.899640083
285 1 0.0 16.425964355 13.256040573 25.417034149
286 1 0.0 16.425964355 13.256040573 21.911235809
287 1 0.0 16.425964355 13.256040573 18.405437469
288 1 0.0 16.425964355 13.256040573 14.899640083
289 1 0.0 17.002313614 16.714138031 25.417034149
290 1 0.0 17.002313614 16.714138031 21.911235809
291 1 0.0 17.002313614 16.714138031 18.405437469
292 1 0.0 17.002313614 16.714138031 14.899640083
293 1 0.0 17.578662872 20.172237396 25.417034149
294 1 0.0 17.578662872 20.172237396 21.911235809
295 1 0.0 17.578662872 20.172237396 18.405437469
296 1 0.0 17.578662872 20.172237396 14.899640083
297 1 0.0 1.729048729 21.03676033 25.417034149
298 1 0.0 1.729048729 21.03676033 21.911235809
299 1 0.0 1.729048729 21.03676033 18.405437469
300 1 0.0 1.729048729 21.03676033 14.899640083
301 1 0.0 19.595888138 0.288175911 25.417034149
302 1 0.0 19.595888138 0.288175911 21.911235809
303 1 0.0 19.595888138 0.288175911 18.405437469
304 1 0.0 19.595888138 0.288175911 14.899640083
305 1 0.0 20.172237396 3.74627161 25.417034149
306 1 0.0 20.172237396 3.74627161 21.911235809
307 1 0.0 20.172237396 3.74627161 18.405437469
308 1 0.0 20.172237396 3.74627161 14.899640083
309 1 0.0 20.748586655 7.204369545 25.417034149
310 1 0.0 20.748586655 7.204369545 21.911235809
311 1 0.0 20.748586655 7.204369545 18.405437469
312 1 0.0 20.748586655 7.204369545 14.899640083
313 1 0.0 0.0 10.662467957 25.417034149
314 1 0.0 0.0 10.662467957 21.911235809
315 1 0.0 0.0 10.662467957 18.405437469
316 1 0.0 0.0 10.662467957 14.899640083
317 1 0.0 0.576349258 14.120566368 25.417034149
318 1 0.0 0.576349258 14.120566368 21.911235809
319 1 0.0 0.576349258 14.120566368 18.405437469
320 1 0.0 0.576349258 14.120566368 14.899640083
321 1 0.0 1.152698517 17.578666687 25.417034149
322 1 0.0 1.152698517 17.578666687 21.911235809
323 1 0.0 1.152698517 17.578666687 18.405437469
324 1 0.0 1.152698517 17.578666687 14.899640083
325 1 0.0 2.305398226 3.169922352 25.417034149
326 1 0.0 2.305398226 3.169922352 21.911235809
327 1 0.0 2.305398226 3.169922352 18.405437469
328 1 0.0 2.305398226 3.169922352 14.899640083
329 1 0.0 2.881747961 6.628020287 25.417034149
330 1 0.0 2.881747961 6.628020287 21.911235809
331 1 0.0 2.881747961 6.628020287 18.405437469
332 1 0.0 2.881747961 6.628020287 14.899640083
333 1 0.0 3.458097458 10.086118698 25.417034149
334 1 0.0 3.458097458 10.086118698 21.911235809
335 1 0.0 3.458097458 10.086118698 18.405437469
336 1 0.0 3.458097458 10.086118698 14.899640083
337 1 0.0 4.034447193 13.54421711 25.417034149
338 1 0.0 4.034447193 13.54421711 21.911235809
339 1 0.0 4.034447193 13.54421711 18.405437469
340 1 0.0 4.034447193 13.54421711 14.899640083
341 1 0.0 4.610796452 17.002313614 25.417034149
342 1 0.0 4.610796452 17.002313614 21.911235809
343 1 0.0 4.610796452 17.002313614 18.405437469
344 1 0.0 4.610796452 17.002313614 14.899640083
345 1 0.0 5.187146664 20.460412979 25.417034149
346 1 0.0 5.187146664 20.460412979 21.911235809
347 1 0.0 5.187146664 20.460412979 18.405437469
348 1 0.0 5.187146664 20.460412979 14.899640083
349 1 0.0 5.763496399 2.593573332 25.417034149
350 1 0.0 5.763496399 2.593573332 21.911235809
351 1 0.0 5.763496399 2.593573332 18.405437469
352 1 0.0 5.763496399 2.593573332 14.899640083
353 1 0.0 6.339845657 6.051671028 25.417034149
354 1 0.0 6.339845657 6.051671028 21.911235809
355 1 0.0 6.339845657 6.051671028 18.405437469
356 1 0.0 6.339845657 6.051671028 14.899640083
357 1 0.0 6.916194916 9.50976944 25.417034149
358 1 0.0 6.916194916 9.50976944 21.911235809
359 1 0.0 6.916194916 9.50976944 18.405437469
360 1 0.0 6.916194916 9.50976944 14.899640083
361 1 0.0 7.492544651 12.96786499 25.417034149
362 1 0.0 7.492544651 12.96786499 21.911235809
363 1 0.0 7.492544651 12.96786499 18.405437469
364 1 0.0 7.492544651 12.96786499 14.899640083
365 1 0.0 8.068894386 16.42596817 25.417034149
366 1 0.0 8.068894386 16.42596817 21.911235809
367 1 0.0 8.068894386 16.42596817 18.405437469
368 1 0.0 8.068894386 16.42596817 14.899640083
369 1 0.0 8.645243645 19.884061813 25.417034149
370 1 0.0 8.645243645 19.884061813 21.911235809
371 1 0.0 8.645243645 19.884061813 18.405437469
372 1 0.0 8.645243645 19.884061813 14.899640083
373 1 0.0 9.221592903 2.017223597 25.417034149
374 1 0.0 9.221592903 2.017223597 21.911235809
375 1 0.0 9.221592903 2.017223597 18.405437469
376 1 0.0 9.221592903 2.017223597 14.899640083
377 1 0.0 9.797944069 5.47532177 25.417034149
378 1 0.0 9.797944069 5.47532177 21.911235809
379 1 0.0 9.797944069 5.47532177 18.405437469
380 1 0.0 9.797944069 5.47532177 14.899640083
381 1 0.0 10.374293327 8.933420181 25.417034149
382 1 0.0 10.374293327 8.933420181 21.911235809
383 1 0.0 10.374293327 8.933420181 18.405437469
384 1 0.0 10.374293327 8.933420181 14.899640083
385 1 0.0 10.950642586 12.391518593 25.417034149
386 1 0.0 10.950642586 12.391518593 21.911235809
387 1 0.0 10.950642586 12.391518593 18.405437469
388 1 0.0 10.950642586 12.391518593 14.899640083
389 1 0.0 11.526991844 15.849614143 25.417034149
390 1 0.0 11.526991844 15.849614143 21.911235809
391 1 0.0 11.526991844 15.849614143 18.405437469
392 1 0.0 11.526991844 15.849614143 14.899640083
393 1 0.0 12.103342056 19.307712555 25.417034149
394 1 0.0 12.103342056 19.307712555 21.911235809
395 1 0.0 12.103342056 19.307712555 18.405437469
396 1 0.0 12.103342056 19.307712555 14.899640083
397 1 0.0 12.679691315 1.440874457 25.417034149
398 1 0.0 12.679691315 1.440874457 21.911235809
399 1 0.0 12.679691315 1.440874457 18.405437469
400 1 0.0 12.679691315 1.440874457 14.899640083
401 1 0.0 13.256040573 4.898972988 25.417034149
402 1 0.0 13.256040573 4.898972988 21.911235809
403 1 0.0 13.256040573 4.898972988 18.405437469
404 1 0.0 13.256040573 4.898972988 14.899640083
405 1 0.0 13.832391739 8.357070923 25.417034149
406 1 0.0 13.832391739 8.357070923 21.911235809
407 1 0.0 13.832391739 8.357070923 18.405437469
408 1 0.0 13.832391739 8.357070923 14.899640083
409 1 0.0 14.408740997 11.815166473 25.417034149
410 1 0.0 14.408740997 11.815166473 21.911235809
411 1 0.0 14.408740997 11.815166473 18.405437469
412 1 0.0 14.408740997 11.815166473 14.899640083
413 1 0.0 14.985090256 15.273264885 25.417034149
414 1 0.0 14.985090256 15.273264885 21.911235809
415 1 0.0 14.985090256 15.273264885 18.405437469
416 1 0.0 14.985090256 15.273264885 14.899640083
417 1 0.0 15.561439514 18.731363297 25.417034149
418 1 0.0 15.561439514 18.731363297 21.911235809
419 1 0.0 15.561439514 18.731363297 18.405437469
420 1 0.0 15.561439514 18.731363297 14.899640083
421 1 0.0 16.137788773 0.864525199 25.417034149
422 1 0.0 16.137788773 0.864525199 21.911235809
423 1 0.0 16.137788773 0.864525199 18.405437469
424 1 0.0 16.137788773 0.864525199 14.899640083
425 1 0.0 16.714138031 4.322623253 25.417034149
426 1 0.0 16.714138031 4.322623253 21.911235809
427 1 0.0 16.714138031 4.322623253 18.405437469
428 1 0.0 16.714138031 4.322623253 14.899640083
429 1 0.0 17.290487289 7.78071928 25.417034149
430 1 0.0 17.290487289 7.78071928 21.911235809
431 1 0.0 17.290487289 7.78071928 18.405437469
432 1 0.0 17.290487289 7.78071928 14.899640083
433 1 0.0 17.866838455 11.238817215 25.417034149
434 1 0.0 17.866838455 11.238817215 21.911235809
435 1 0.0 17.866838455 11.238817215 18.405437469
436 1 0.0 17.866838455 11.238817215 14.899640083
437 1 0.0 18.443187714 14.696915627 25.417034149
438 1 0.0 18.443187714 14.696915627 21.911235809
439 1 0.0 18.443187714 14.696915627 18.405437469
440 1 0.0 18.443187714 14.696915627 14.899640083
441 1 0.0 19.019538879 18.155015945 25.417034149
442 1 0.0 19.019538879 18.155015945 21.911235809
443 1 0.0 19.019538879 18.155015945 18.405437469
444 1 0.0 19.019538879 18.155015945 14.899640083
445 1 0.0 2.017223597 1.440873981 27.169933319
446 1 0.0 2.017223597 1.440873981 23.664134979
447 1 0.0 2.017223597 1.440873981 20.158336639
448 1 0.0 2.017223597 1.440873981 16.652540207
449 1 0.0 19.884061813 2.017223597 27.169933319
450 1 0.0 19.884061813 2.017223597 23.664134979
451 1 0.0 19.884061813 2.017223597 20.158336639
452 1 0.0 19.884061813 2.017223597 16.652540207
453 1 0.0 20.460411072 5.475321293 27.169933319
454 1 0.0 20.460411072 5.475321293 23.664134979
455 1 0.0 20.460411072 5.475321293 20.158336639
456 1 0.0 20.460411072 5.475321293 16.652540207
457 1 0.0 21.03676033 8.933418274 27.169933319
458 1 0.0 21.03676033 8.933418274 23.664134979
459 1 0.0 21.03676033 8.933418274 20.158336639
460 1 0.0 21.03676033 8.933418274 16.652540207
461 1 0.0 0.288175911 12.391516685 27.169933319
462 1 0.0 0.288175911 12.391516685 23.664134979
463 1 0.0 0.288175911 12.391516685 20.158336639
464 1 0.0 0.288175911 12.391516685 16.652540207
465 1 0.0 0.864522636 15.849615097 27.169933319
466 1 0.0 0.864522636 15.849615097 23.664134979
467 1 0.0 0.864522636 15.849615097 20.158336639
468 1 0.0 0.864522636 15.849615097 16.652540207
469 1 0.0 1.440874457 19.307712555 27.169933319
470 1 0.0 1.440874457 19.307712555 23.664134979
471 1 0.0 1.440874457 19.307712555 20.158336639
472 1 0.0 1.440874457 19.307712555 16.652540207
473 1 0.0 2.593573332 4.898972034 27.169933319
474 1 0.0 2.593573332 4.898972034 23.664134979
475 1 0.0 2.593573332 4.898972034 20.158336639
476 1 0.0 2.593573332 4.898972034 16.652540207
477 1 0.0 3.169922829 8.357069016 27.169933319
478 1 0.0 3.169922829 8.357069016 23.664134979
479 1 0.0 3.169922829 8.357069016 20.158336639
480 1 0.0 3.169922829 8.357069016 16.652540207
481 1 0.0 3.746272564 11.815167427 27.169933319
482 1 0.0 3.746272564 11.815167427 23.664134979
483 1 0.0 3.746272564 11.815167427 20.158336639
484 1 0.0 3.746272564 11.815167427 16.652540207
485 1 0.0 4.322621822 15.273264885 27.169933319
486 1 0.0 4.322621822 15.273264885 23.664134979
487 1 0.0 4.322621822 15.273264885 20.158336639
488 1 0.0 4.322621822 15.273264885 16.652540207
489 1 0.0 4.898972034 18.731363297 27.169933319
490 1 0.0 4.898972034 18.731363297 23.664134979
491 1 0.0 4.898972034 18.731363297 20.158336639
492 1 0.0 4.898972034 18.731363297 16.652540207
493 1 0.0 5.475321293 0.864525199 27.169933319
494 1 0.0 5.475321293 0.864525199 23.664134979
495 1 0.0 5.475321293 0.864525199 20.158336639
496 1 0.0 5.475321293 0.864525199 16.652540207
497 1 0.0 6.051671028 4.322621822 27.169933319
498 1 0.0 6.051671028 4.322621822 23.664134979
499 1 0.0 6.051671028 4.322621822 20.158336639
500 1 0.0 6.051671028 4.322621822 16.652540207
501 1 0.0 6.628020287 7.780719757 27.169933319
502 1 0.0 6.628020287 7.780719757 23.664134979
503 1 0.0 6.628020287 7.780719757 20.158336639
504 1 0.0 6.628020287 7.780719757 16.652540207
505 1 0.0 7.204370499 11.238817215 27.169933319
506 1 0.0 7.204370499 11.238817215 23.664134979
507 1 0.0 7.204370499 11.238817215 20.158336639
508 1 0.0 7.204370499 11.238817215 16.652540207
509 1 0.0 7.780719757 14.696915627 27.169933319
510 1 0.0 7.780719757 14.696915627 23.664134979
511 1 0.0 7.780719757 14.696915627 20.158336639
512 1 0.0 7.780719757 14.696915627 16.652540207
513 1 0.0 8.357069016 18.155015945 27.169933319
514 1 0.0 8.357069016 18.155015945 23.664134979
515 1 0.0 8.357069016 18.155015945 20.158336639
516 1 0.0 8.357069016 18.155015945 16.652540207
517 1 0.0 8.933418274 0.288173407 27.169933319
518 1 0.0 8.933418274 0.288173407 23.664134979
519 1 0.0 8.933418274 0.288173407 20.158336639
520 1 0.0 8.933418274 0.288173407 16.652540207
521 1 0.0 9.50976944 3.746272564 27.169933319
522 1 0.0 9.50976944 3.746272564 23.664134979
523 1 0.0 9.50976944 3.746272564 20.158336639
524 1 0.0 9.50976944 3.746272564 16.652540207
525 1 0.0 10.086118698 7.204369545 27.169933319
526 1 0.0 10.086118698 7.204369545 23.664134979
527 1 0.0 10.086118698 7.204369545 20.158336639
528 1 0.0 10.086118698 7.204369545 16.652540207
529 1 0.0 10.662467957 10.662467957 27.169933319
530 1 0.0 10.662467957 10.662467957 23.664134979
531 1 0.0 10.662467957 10.662467957 20.158336639
532 1 0.0 10.662467957 10.662467957 16.652540207
533 1 0.0 11.238817215 14.120566368 27.169933319
534 1 0.0 11.238817215 14.120566368 23.664134979
535 1 0.0 11.238817215 14.120566368 20.158336639
536 1 0.0 11.238817215 14.120566368 16.652540207
537 1 0.0 11.815166473 17.578666687 27.169933319
538 1 0.0 11.815166473 17.578666687 23.664134979
539 1 0.0 11.815166473 17.578666687 20.158336639
540 1 0.0 11.815166473 17.578666687 16.652540207
541 1 0.0 12.391516685 21.03676033 27.169933319
542 1 0.0 12.391516685 21.03676033 23.664134979
543 1 0.0 12.391516685 21.03676033 20.158336639
544 1 0.0 12.391516685 21.03676033 16.652540207
545 1 0.0 12.967865944 3.169922829 27.169933319
546 1 0.0 12.967865944 3.169922829 23.664134979
547 1 0.0 12.967865944 3.169922829 20.158336639
548 1 0.0 12.967865944 3.169922829 16.652540207
549 1 0.0 13.544215202 6.628020287 27.169933319
550 1 0.0 13.544215202 6.628020287 23.664134979
551 1 0.0 13.544215202 6.628020287 20.158336639
552 1 0.0 13.544215202 6.628020287 16.652540207
553 1 0.0 14.120566368 10.086118698 27.169933319
554 1 0.0 14.120566368 10.086118698 23.664134979
555 1 0.0 14.120566368 10.086118698 20.158336639
556 1 0.0 14.120566368 10.086118698 16.652540207
557 1 0.0 14.696915627 13.54421711 27.169933319
558 1 0.0 14.696915627 13.54421711 23.664134979
559 1 0.0 14.696915627 13.54421711 20.158336639
560 1 0.0 14.696915627 13.54421711 16.652540207
561 1 0.0 15.273264885 17.002313614 27.169933319
562 1 0.0 15.273264885 17.002313614 23.664134979
563 1 0.0 15.273264885 17.002313614 20.158336639
564 1 0.0 15.273264885 17.002313614 16.652540207
565 1 0.0 15.849614143 20.460411072 27.169933319
566 1 0.0 15.849614143 20.460411072 23.664134979
567 1 0.0 15.849614143 20.460411072 20.158336639
568 1 0.0 15.849614143 20.460411072 16.652540207
569 1 0.0 16.425964355 2.593573332 27.169933319
570 1 0.0 16.425964355 2.593573332 23.664134979
571 1 0.0 16.425964355 2.593573332 20.158336639
572 1 0.0 16.425964355 2.593573332 16.652540207
573 1 0.0 17.002313614 6.051671028 27.169933319
574 1 0.0 17.002313614 6.051671028 23.664134979
575 1 0.0 17.002313614 6.051671028 20.158336639
576 1 0.0 17.002313614 6.051671028 16.652540207
577 1 0.0 17.578662872 9.50976944 27.169933319
578 1 0.0 17.578662872 9.50976944 23.664134979
579 1 0.0 17.578662872 9.50976944 20.158336639
580 1 0.0 17.578662872 9.50976944 16.652540207
581 1 0.0 18.155015945 12.967865944 27.169933319
582 1 0.0 18.155015945 12.967865944 23.664134979
583 1 0.0 18.155015945 12.967865944 20.158336639
584 1 0.0 18.155015945 12.967865944 16.652540207
585 1 0.0 18.731363297 16.425964355 27.169933319
586 1 0.0 18.731363297 16.425964355 23.664134979
587 1 0.0 18.731363297 16.425964355 20.158336639
588 1 0.0 18.731363297 16.425964355 16.652540207
589 1 0.0 19.307712555 19.884061813 27.169933319
590 1 0.0 19.307712555 19.884061813 23.664134979
591 1 0.0 19.307712555 19.884061813 20.158336639
592 1 0.0 19.307712555 19.884061813 16.652540207
593 2 0.0 0.00216882 0.00216882 0.876449466
594 2 0.0 0.00216882 0.00216882 4.382246971
595 2 0.0 0.00216882 0.00216882 7.888044834
596 2 0.0 0.00216882 0.00216882 11.393842697
597 2 0.0 0.00216882 3.653041124 0.876449466
598 2 0.0 0.00216882 3.653041124 4.382246971
599 2 0.0 0.00216882 3.653041124 7.888044834
600 2 0.0 0.00216882 3.653041124 11.393842697
601 2 0.0 0.00216882 7.158838749 0.876449466
602 2 0.0 0.00216882 7.158838749 4.382246971
603 2 0.0 0.00216882 7.158838749 7.888044834
604 2 0.0 0.00216882 7.158838749 11.393842697
605 2 0.0 0.00216882 10.664635658 0.876449466
606 2 0.0 0.00216882 10.664635658 4.382246971
607 2 0.0 0.00216882 10.664635658 7.888044834
608 2 0.0 0.00216882 10.664635658 11.393842697
609 2 0.0 0.00216882 14.170434952 0.876449466
610 2 0.0 0.00216882 14.170434952 4.382246971
611 2 0.0 0.00216882 14.170434952 7.888044834
612 2 0.0 0.00216882 14.170434952 11.393842697
613 2 0.0 0.00216882 17.676231384 0.876449466
614 2 0.0 0.00216882 17.676231384 4.382246971
615 2 0.0 0.00216882 17.676231384 7.888044834