LAMMPS data file via write_data, version 12 Dec 2018, timestep = 16200000

6480 atoms
3 atom types

8.2076595325835910e+01 1.2322340467416464e+02 xlo xhi
8.2076595325835910e+01 1.2322340467416464e+02 ylo yhi
8.2076595325835910e+01 1.2322340467416464e+02 zlo zhi

Masses

1 14
2 12
3 1.008

Atoms # charge

4984 2 -8.3127486851422516e-02 8.4959618555799594e+01 8.4324232647537741e+01 8.6683370554994298e+01 0 1 0
4985 2 -4.8355826892511396e-02 8.4841710193602097e+01 8.5745577602580866e+01 8.6763269053699645e+01 0 1 0
5857 3 2.6156190620154618e-01 8.6831042619365803e+01 8.7392221963515667e+01 8.5994497140506326e+01 0 0 0
4983 2 1.2251010639833153e-01 8.4327739666290427e+01 8.3905883586165061e+01 8.5478258380980918e+01 0 1 0
4982 1 -4.7853627324976533e-01 8.3977981094570055e+01 8.5101248005751032e+01 8.4762115694336956e+01 0 1 0
1716 3 5.3895763170430433e-02 8.6281662359852547e+01 8.4980243029169671e+01 8.8635267273846551e+01 0 0 0
1713 2 -6.6053832620394409e-02 8.6677789723011969e+01 8.4653643804207633e+01 8.9626959433755559e+01 0 0 0
1714 2 1.2625945617543263e-01 8.7593525389094978e+01 8.3575768587604088e+01 8.9917906421301737e+01 0 0 0
1574 2 -5.2371986403867796e-02 8.3333777823092788e+01 8.4942119602576014e+01 9.0208562413164316e+01 0 1 0
4986 2 9.1382363123920313e-02 8.4342531874373421e+01 8.6306370608743492e+01 8.5555295579493247e+01 0 1 0
4988 3 4.3659660509854654e-02 8.5095360486780905e+01 8.6312869488203390e+01 8.7622612471307747e+01 0 1 0
4994 2 1.0810455537219664e-01 8.4155244720294348e+01 8.7645295151448110e+01 8.5159687501256087e+01 0 1 0
1712 2 -3.9927182168348369e-02 8.6305162084367964e+01 8.5156013660155423e+01 9.0894368421608775e+01 0 0 0
1725 3 2.2127062714727297e-01 8.7884355495924837e+01 8.3818546975744027e+01 8.7010681198811184e+01 0 0 0
5849 3 2.4565985051401529e-01 8.6566585842036915e+01 8.5574799183671516e+01 8.4094278380044514e+01 0 0 0
1573 2 1.0029862349804979e-01 8.2791128873483373e+01 8.4599331954858201e+01 8.8942715897998056e+01 0 1 0
1715 3 3.0644023351660648e-02 8.5491178131144494e+01 8.5855011218523501e+01 9.1100481115774556e+01 0 0 0
5842 1 -4.6551170031574129e-01 8.7538020721179763e+01 8.5734163357914696e+01 8.3524450260308456e+01 0 0 0
1577 3 3.1806385512164276e-02 8.3264648420604260e+01 8.5913273803944548e+01 9.0653821277311891e+01 0 1 0
1731 3 6.9987141584805013e-02 8.7446581481320479e+01 8.3160362422347745e+01 8.4557469478077550e+01 0 0 0
4993 2 -6.4778077588429489e-02 8.3633305077416367e+01 8.8052349669058799e+01 8.3889563995167762e+01 0 1 0
5863 3 2.3623163821597133e-02 8.5808090282400698e+01 8.8198298411953516e+01 8.8525956672967624e+01 0 0 0
1575 2 -7.1899071160669278e-02 8.4034891713940368e+01 8.3815815736212969e+01 9.0722613000987323e+01 0 1 0
4987 3 1.0108216028392690e-01 8.5344545881837661e+01 8.3711562070944836e+01 8.7478149959286256e+01 0 1 0
4975 2 1.1887262986950206e-01 8.4060750808722574e+01 8.2557117514281202e+01 8.5052771531525849e+01 0 1 0
1572 1 -4.8715528996793700e-01 8.3178993068678238e+01 8.3153862000936911e+01 8.8719763890164984e+01 0 1 0
1576 2 1.2944810272234780e-01 8.3989467184213751e+01 8.2737559408353761e+01 8.9780227506540996e+01 0 1 0
1718 1 -4.4697430883418082e-01 8.7903476152424133e+01 8.2788122307791625e+01 8.7439953727359423e+01 0 0 0
1710 1 -4.9031706479745985e-01 8.7731029287645583e+01 8.3497735167617193e+01 9.1358828192752668e+01 0 0 0
1578 3 7.3210989873194854e-02 8.4365946834316929e+01 8.3728808288940172e+01 9.1705940954022793e+01 0 1 0
4989 3 2.3624310444373517e-01 8.3697889636263611e+01 8.5222891556148682e+01 8.3694168846898435e+01 0 1 0
4996 3 2.0938943604810904e-02 8.3211263960194842e+01 8.7401568834231753e+01 8.3104485202104058e+01 0 1 0
1722 2 9.2890521009280691e-02 8.8103934290145304e+01 8.2735036720943668e+01 8.8897182982559642e+01 0 0 0
4979 3 6.7729540993422821e-02 8.3032823296550362e+01 8.3015008294635734e+01 8.3149114541176544e+01 0 1 0
5860 2 -4.7603291473085813e-02 8.6632713693912564e+01 8.8604476702329748e+01 8.9064626133843475e+01 0 0 0
1581 2 9.6616372760189778e-02 8.2143731864485872e+01 8.5499080093352603e+01 8.8083869288198770e+01 0 1 0
1579 3 2.6401546879256060e-01 8.2932955313646914e+01 8.2580715723949268e+01 8.7775884204387182e+01 0 1 0
1732 3 9.6068543311861862e-02 8.7979164511736911e+01 8.2365272068941792e+01 8.2168273976780711e+01 0 0 0
1728 2 -5.8916523792147180e-02 8.8182794217103236e+01 8.2405864481705706e+01 8.4343798423379340e+01 0 0 0
3563 3 2.2495844488918026e-01 8.4079956885838072e+01 8.8436011698909653e+01 9.2017244830769769e+01 0 0 0
5850 1 -4.6016631936774111e-01 8.7866748732343623e+01 8.7246310795363868e+01 8.6400717266107861e+01 0 0 0
4990 1 -4.7555302727386201e-01 8.4477734783990584e+01 8.8861749514075314e+01 8.5896522306149137e+01 0 1 0
4997 3 2.4783544880330211e-01 8.4211202771571038e+01 8.8909833933880350e+01 8.6977242675635495e+01 0 1 0
4976 2 -6.1931160488999853e-02 8.3405671511953742e+01 8.2287428321214364e+01 8.3820048977102445e+01 0 1 0
5859 2 1.0148709442085613e-01 8.8003404236632704e+01 8.8301538198757584e+01 8.8786279955948530e+01 0 0 0
5846 2 1.1109287700262585e-01 8.8726216007204158e+01 8.6292274089049627e+01 8.4129664356910126e+01 0 0 0
5851 2 1.2406440542633181e-01 8.8521018791116134e+01 8.7870147940020615e+01 8.7525370173561143e+01 0 0 0
1711 2 1.0133314731081439e-01 8.6885026391567948e+01 8.4509257108614875e+01 9.2023696820666743e+01 0 0 0
1717 3 2.6766868374605007e-01 8.8184696447605148e+01 8.2682739436249008e+01 9.1899435227338230e+01 0 0 0
3157 3 7.7199716535777507e-02 8.8623418961558642e+01 8.6034732309016348e+01 8.9932545022000269e+01 0 0 0
5854 2 9.4400118208242928e-02 8.8889983291674582e+01 8.6962591928720940e+01 8.5333346543651245e+01 0 0 0
5838 3 3.5230309918207678e-02 8.5183636616103470e+01 8.4205457954932285e+01 8.2402622504834014e+01 0 0 0
1587 3 1.9648944524767126e-01 8.2760672372162304e+01 8.7460358359940486e+01 8.9006546061844901e+01 0 1 0
5843 2 1.0220975628716093e-01 8.7886388913083621e+01 8.5066524986950768e+01 8.2171390006080514e+01 0 0 0
6375 3 2.4113911175989136e-01 8.7419926373826286e+01 8.8098899596418107e+01 8.2448191195187277e+01 0 0 0
6368 1 -4.1133434782636086e-01 8.8454760839692582e+01 8.8592742499754465e+01 8.2170800929085274e+01 0 0 0
643 2 -8.5372961890530980e-02 9.1101579460109363e+01 8.2477918067858454e+01 9.1087623231301109e+01 0 0 0
5665 2 -8.9426569222552377e-02 9.5373333031381236e+01 8.2237728868640872e+01 9.0763751020759528e+01 0 0 0
3155 2 -5.5834434972568070e-02 8.9165750320605341e+01 8.6277171116268036e+01 9.2066907356782139e+01 0 0 0
5848 3 6.5170930888136885e-02 9.0688851017546881e+01 8.6574643438701344e+01 8.3108419086791343e+01 0 0 0
5853 2 -5.0258936748756686e-02 9.0111410913480967e+01 8.7467271396942593e+01 8.5852600383954211e+01 0 0 0
5852 2 -4.8111530433877683e-02 8.9899579097768623e+01 8.7973995602051488e+01 8.7162564575412446e+01 0 0 0
3142 3 6.3345344287114760e-02 8.9718615718119423e+01 8.4299054964841574e+01 8.5362164853733134e+01 0 0 0
3139 2 -4.8781510175468348e-02 9.0712559104243283e+01 8.4125513537697159e+01 8.4964585291409193e+01 0 0 0
3138 2 -4.8326657588924918e-02 9.1056843479785954e+01 8.3633196597759664e+01 8.3698241588816941e+01 0 0 0
5856 3 5.8449854479054007e-02 9.1022887257582681e+01 8.7380818853127948e+01 8.5335167282156632e+01 0 0 0
3144 1 -4.2650485314129560e-01 9.0900468840397693e+01 8.5181621298787178e+01 8.7934632847603780e+01 0 0 0
3151 3 2.3004877583323363e-01 8.9893572224654548e+01 8.4639889918022135e+01 8.7974513170688851e+01 0 0 0
3140 2 1.2169832793568983e-01 9.1903620979026954e+01 8.4329273093329633e+01 8.5732904767062323e+01 0 0 0
3148 2 1.1668785990082126e-01 9.1996625912045019e+01 8.4848240666633302e+01 8.7044994475879619e+01 0 0 0
3145 2 1.0108234181827704e-01 9.1425142121611955e+01 8.5621824040325976e+01 8.9234657564933201e+01 0 0 0
3153 2 1.1013271173118711e-01 9.0821113664579414e+01 8.5940191623792515e+01 9.0453561986010811e+01 0 0 0
3154 2 -4.1928412683553254e-02 8.9420625282002405e+01 8.6126197976826276e+01 9.0683173865000015e+01 0 0 0
3147 2 -4.0080936996230623e-02 9.3184124546492470e+01 8.5242274275497905e+01 8.7742987936657627e+01 0 0 0
3136 1 -4.4952353661861671e-01 9.2985418701947481e+01 8.3948967827810151e+01 8.4836418579128633e+01 0 0 0
3137 2 1.2743607546171329e-01 9.2470659293783797e+01 8.3525675342927997e+01 8.3567482867060306e+01 0 0 0
3146 2 -4.3551388275689100e-02 9.2859316329991429e+01 8.5630748174471620e+01 8.9071453968437680e+01 0 0 0
3149 3 3.1139919778239596e-02 9.3509379881593674e+01 8.5942488952670274e+01 8.9822975555736193e+01 0 0 0
5855 3 6.4088708421818380e-02 9.0565796648949558e+01 8.8402157078826093e+01 8.7797346887694687e+01 0 0 0
3150 3 4.9792569733059310e-02 9.4161769463579787e+01 8.5130297152885888e+01 8.7374283665059707e+01 0 0 0
3143 3 2.5013434241474353e-01 9.4078531142771965e+01 8.3944253372705276e+01 8.5123775159769053e+01 0 0 0
3141 3 7.1275705294199382e-02 9.0349860195135363e+01 8.3525633358860759e+01 8.2938665937500460e+01 0 0 0
2059 2 1.0439912619092398e-01 9.4868171206565478e+01 8.7242086522335725e+01 8.4954459391079425e+01 0 0 0
2060 2 -4.4478292340686926e-02 9.3851175939300475e+01 8.7513937439302254e+01 8.3988293833560718e+01 0 0 0
645 3 5.4560319425708263e-02 9.2782187353611221e+01 8.3805239013693978e+01 9.0577626145309893e+01 0 0 0
642 2 -4.2782492524941512e-02 9.2306521611670036e+01 8.3266338946823396e+01 9.1401530698794872e+01 0 0 0
2067 2 8.4432293120181079e-02 9.4771906425093221e+01 8.7585814703607085e+01 8.6317296757258944e+01 0 0 0
5845 2 -5.2364456713404339e-02 8.9715257514506220e+01 8.6158641726461198e+01 8.3072123213511858e+01 0 0 0
2063 3 1.7683043765494934e-02 9.2895792206128888e+01 8.7999344683591787e+01 8.4190036245850735e+01 0 0 0
2066 1 -4.2582115707433754e-01 9.3702657948523068e+01 8.8369215677187626e+01 8.6978898555455928e+01 0 0 0
3129 2 1.1159045161739634e-01 9.3173533637102807e+01 8.3146083345192253e+01 8.2369813088646225e+01 0 0 0
3130 2 -4.3488528930676840e-02 9.4601557462244273e+01 8.3114729468980713e+01 8.2235476364476753e+01 0 0 0
2069 2 -5.4672691265993105e-02 9.5186810404822239e+01 8.7934321217268348e+01 8.8577359116434195e+01 0 0 0
3152 1 -4.7508408757085491e-01 9.1453797356890988e+01 8.6162009297625005e+01 9.1783225784919367e+01 0 0 0
2061 2 -5.9216217864593503e-02 9.4218340082393624e+01 8.7012495660031803e+01 8.2705692290319718e+01 0 0 0
639 3 2.5199075273754568e-01 9.4615329685726621e+01 8.5162531563088507e+01 9.1748598152724583e+01 0 0 0
3159 3 2.8057621379741965e-01 9.2500008967878870e+01 8.5930009025576823e+01 9.1897070442822084e+01 0 0 0
2062 2 1.0399528205532946e-01 9.5463854076633865e+01 8.6356651338298789e+01 8.2811114563316366e+01 0 0 0
3133 3 7.6385651328548618e-02 9.5227704634507376e+01 8.3151989554783256e+01 8.3055810481878098e+01 0 0 0
2068 2 -4.6425052711181101e-02 9.5612255879268972e+01 8.7264923884158492e+01 8.7419922501792783e+01 0 0 0
2072 3 2.2887365322871705e-02 9.5721311040896197e+01 8.7941477343263045e+01 8.9563794007529665e+01 0 0 0
5666 2 1.3299410764913475e-01 9.5077054441328002e+01 8.2946612457141583e+01 8.9630615056789082e+01 0 0 0
2070 2 1.1169595118360198e-01 9.3980244133419674e+01 8.8678237171935820e+01 8.8336661858855678e+01 0 0 0
646 3 6.9701702082799383e-02 9.0581494613507985e+01 8.2367775490876696e+01 9.0119420378391425e+01 0 0 0
5670 3 2.0303667189961065e-02 9.4136218275805035e+01 8.2853170547955798e+01 8.9072050645701410e+01 0 0 0
2058 1 -4.6544173662146926e-01 9.5843640308196328e+01 8.6444271968006930e+01 8.4210777262576030e+01 0 0 0
5658 2 1.1785227822507699e-01 9.9787264451883374e+01 8.5918156859199144e+01 9.2169455476861017e+01 0 0 0
2071 3 3.6358922524392344e-03 9.6543817731807380e+01 8.6652908684167045e+01 8.7394819016218349e+01 0 0 0
2065 3 2.0826764023094929e-01 9.6872658167233496e+01 8.6247654552636007e+01 8.4610094884989067e+01 0 0 0
5660 3 5.4828732755897565e-02 9.9948676067362172e+01 8.7604472769308387e+01 9.0673582233627158e+01 0 0 0
5657 2 -5.1087421332419045e-02 9.9464024671040434e+01 8.6642290729487399e+01 9.0990026934411873e+01 0 0 0
5669 3 2.2796516129595207e-01 9.6099194947594754e+01 8.4726704486853279e+01 8.8536010811559208e+01 0 0 0
5662 1 -4.5370743668982094e-01 9.5999020303249992e+01 8.3912226443937826e+01 8.9302503324874451e+01 0 0 0
3805 3 2.7650881783397491e-02 9.8712214576189581e+01 8.6632446806725738e+01 8.7205933935078690e+01 0 0 0
3799 3 1.9441912487371213e-01 9.9306600852765513e+01 8.5368877768867989e+01 8.5036635833864111e+01 0 0 0
3793 2 1.0336598405394901e-01 1.0079112366135615e+02 8.7097443256267979e+01 8.5273250211419850e+01 0 0 0
3792 1 -4.3023188050538025e-01 1.0026280899196777e+02 8.5843908353836326e+01 8.4640875066857660e+01 0 0 0
3802 2 -4.7763592881895106e-02 9.9351645586354067e+01 8.7465578484901954e+01 8.7319656362390262e+01 0 0 0
5659 3 4.2141170571081077e-02 9.8048093896796559e+01 8.6167497666495578e+01 8.9360564284012725e+01 0 0 0
5656 2 -5.0533685968808681e-02 9.8494693374323020e+01 8.5864511094788270e+01 9.0297873015071389e+01 0 0 0
5663 2 6.9228114364024457e-02 9.7053670173501160e+01 8.3847134709520802e+01 9.0614256742467106e+01 0 0 0
5655 2 1.2250994212969275e-01 9.8175212524629558e+01 8.4656612750747101e+01 9.0967608464605149e+01 0 0 0
3801 2 1.0669179098065854e-01 1.0039927592120588e+02 8.7802204917566840e+01 8.6399973932455865e+01 0 0 0
3796 2 1.1056292830299710e-01 1.0101021383410162e+02 8.5432205529242722e+01 8.3506358360555254e+01 0 0 0
3790 3 3.6196969031495052e-02 9.9209435382091300e+01 8.3163817412817536e+01 8.3731341812954227e+01 0 0 0
3787 2 -5.8218205531754816e-02 1.0000121442457709e+02 8.3141340834018749e+01 8.3005474061455416e+01 0 0 0
3788 2 1.1873516166326858e-01 1.0095822138934636e+02 8.4195475258209640e+01 8.2782541741075605e+01 0 0 0
3795 2 -3.7639025966808182e-02 1.0204201445230234e+02 8.6421858265952082e+01 8.3427344462875965e+01 0 0 0
3794 2 -6.0826414890180661e-02 1.0188237100065245e+02 8.7425455330882485e+01 8.4410565655803438e+01 0 0 0
5664 2 -3.9062529156571497e-02 9.6578339279915383e+01 8.2801260813632140e+01 9.1353722617632172e+01 0 0 0
2056 3 4.0314474535904747e-02 9.8170639432351678e+01 8.5431764548851419e+01 8.2905826833347774e+01 0 0 0
630 3 4.1098722741248921e-02 9.6292709008495137e+01 8.7129354923695800e+01 9.1519954334698184e+01 0 0 0
5654 1 -4.2843364723004324e-01 9.9034232077423269e+01 8.4616487991764373e+01 9.2126757066346556e+01 0 0 0
3806 3 3.5079156991172498e-02 9.8710984538651573e+01 8.8327757659627693e+01 8.9287551043946124e+01 0 0 0
3803 2 -4.6168730830050284e-02 9.9261018894806142e+01 8.8423499627815403e+01 8.8358443236336967e+01 0 0 0
5667 3 5.8449162095305804e-02 9.7017926673478925e+01 8.2479575278304679e+01 9.2268628513814832e+01 0 0 0
4656 3 6.3576863073887380e-02 1.0038884655730774e+02 8.8787707527739656e+01 8.3297407101574933e+01 0 0 1
307 3 2.4051596587957225e-01 9.7018824799693306e+01 8.8925696757361266e+01 8.2909738593319986e+01 0 0 1
3797 3 8.0514325906875392e-02 1.0248768174875714e+02 8.8264623037833047e+01 8.4562115194689795e+01 0 0 0
3588 3 6.2434349335647600e-02 8.5028946094546754e+01 8.9492489833400796e+01 8.2354381541035877e+01 1 0 1
5009 2 -5.1876318701263878e-02 8.2822814994541957e+01 9.5566202752259755e+01 8.4009614383450284e+01 0 1 0
6381 3 6.3587731674571074e-02 8.6637426638319852e+01 8.9122388076282476e+01 8.4278351911378820e+01 0 0 0
2413 3 2.5519635741327495e-01 8.5922172042039094e+01 9.4741235130677921e+01 8.2406894071076550e+01 1 0 1
5861 2 -5.2654901337389023e-02 8.6566437567607423e+01 8.9462066281140437e+01 9.0194115312733800e+01 0 0 0
5864 3 3.3357304328428261e-02 8.5615257397960335e+01 8.9908598144109391e+01 9.0542786171622993e+01 0 0 0
5005 3 2.5730452606627296e-01 8.3344664380868153e+01 9.2593789086589453e+01 8.3733918116417925e+01 0 1 0
3568 2 -8.2275531904625041e-02 8.8301315291044233e+01 9.4591591969814644e+01 8.5983100014199763e+01 1 0 1
4992 2 -6.7825944239233701e-02 8.3597800194653161e+01 8.9470660592775459e+01 8.3914931560027284e+01 0 1 0
4991 2 1.0399256035430739e-01 8.4136700896157222e+01 9.0043986412800052e+01 8.5082259361808156e+01 0 1 0
6378 2 -4.5003910221368286e-02 8.7406191216791910e+01 8.9684409831159016e+01 8.4812781340834960e+01 0 0 0
3575 2 1.0751434861315547e-01 8.7673482054411522e+01 9.2990695936453591e+01 8.2701795920856824e+01 1 0 1
6382 3 8.8065160134069620e-02 8.6202576067944619e+01 9.0548776783570872e+01 8.6439986852170250e+01 0 0 0
6397 3 3.7010993397342394e-02 8.5018355137439713e+01 9.2837356095880040e+01 9.0162444360210714e+01 0 0 0
5004 3 3.3307642481478356e-02 8.4676838523321535e+01 9.4026937772660730e+01 8.7550852940832428e+01 0 1 0
5002 2 1.3286823941902606e-01 8.3949655175213508e+01 9.3805054764316964e+01 8.5442354010183877e+01 0 1 0
5001 2 -6.1778864823053718e-02 8.4453145701744631e+01 9.3373976602989472e+01 8.6719191244999607e+01 0 1 0
5000 2 -5.8181503082400887e-02 8.4611293167805400e+01 9.1965687611024592e+01 8.6722137107786267e+01 0 1 0
3570 3 7.9016308387448206e-02 8.7004660676241116e+01 9.2880936714476420e+01 8.5470532436678923e+01 1 0 1
6379 2 -6.4877588694826266e-02 8.7174743715315941e+01 9.0422203529357745e+01 8.5984576267827663e+01 0 0 0
3581 3 2.1577163731201909e-01 8.5782983683762566e+01 9.1626560463762246e+01 8.3312070022537199e+01 1 0 1
3567 2 -4.7652286156086285e-02 8.7708043629651243e+01 9.3627528945946082e+01 8.5095693884734246e+01 1 0 1
4999 2 1.2364215408086016e-01 8.4260689005372924e+01 9.1430535282611686e+01 8.5445548092041776e+01 0 1 0
5003 3 1.3984505908719210e-02 8.5032528109365160e+01 9.1312551029942441e+01 8.7480722635748023e+01 0 1 0
4998 1 -5.0668348150614639e-01 8.3863807890086548e+01 9.2588046299533815e+01 8.4676475247367577e+01 0 1 0
6384 1 -4.2753387025573292e-01 8.7369807716563827e+01 9.2180768731600978e+01 8.8516347934439693e+01 0 0 0
6391 3 2.1455989581637749e-01 8.6306831441724583e+01 9.2446065280165627e+01 8.8180730759670411e+01 0 0 0
6385 2 9.8192175324676584e-02 8.7835701463432542e+01 9.3041824269105788e+01 8.9611595090351287e+01 0 0 0
6393 2 1.1685171718921111e-01 8.7083401628688534e+01 9.3500491631558290e+01 9.0704045710870233e+01 0 0 0
3566 2 9.0676180883626181e-02 8.8067253819290556e+01 9.3742964363338402e+01 8.3768333086221318e+01 1 0 1
6394 2 -5.3244113264951223e-02 8.5661493493630601e+01 9.3351276621156927e+01 9.0833212216523705e+01 0 0 0
6380 2 1.0629559651752181e-01 8.8351462970136353e+01 9.1123504215775696e+01 8.6345436190005472e+01 0 0 0
6388 2 1.1701576615383885e-01 8.8393450828403317e+01 9.1889158121314452e+01 8.7554754723635057e+01 0 0 0
5010 2 1.2376793387374638e-01 8.3613605488575018e+01 9.5167840429810880e+01 8.5154584196925271e+01 0 1 0
3574 1 -3.9216058914294533e-01 8.6745776040020857e+01 9.1803625086535234e+01 8.2603684096922109e+01 1 0 1
3571 3 6.2751654508089005e-02 8.8119258335673862e+01 9.4758173255113263e+01 8.7076319227419901e+01 1 0 1
6392 1 -4.2656083621324642e-01 8.7362126538709973e+01 9.4428074294299208e+01 9.1806582530309356e+01 0 0 0
6377 2 1.2430443689738813e-01 8.8735759443683946e+01 8.9926731050320811e+01 8.4364574183307028e+01 0 0 0
4995 3 1.7533016200917396e-02 8.3260097845271972e+01 9.0067014386922153e+01 8.3067657898626734e+01 0 1 0
6395 2 -5.1996073523630400e-02 8.5136588538149127e+01 9.4016245460508998e+01 9.1938967516851449e+01 0 0 0
5012 3 4.8483408928424600e-02 8.2644018614194209e+01 9.4979163905025629e+01 8.3184871503493341e+01 0 1 0
5862 2 1.2830616943647882e-01 8.7846002096882671e+01 8.9707227996790408e+01 9.0729272406144958e+01 0 0 0
5870 2 1.1819312837661279e-01 8.8250264906469567e+01 9.0502453244687700e+01 9.1869529212058978e+01 0 0 0
5858 1 -4.4171250955364227e-01 8.8719019656870245e+01 8.9061431053232724e+01 8.9801506189086169e+01 0 0 0
6399 3 2.1727800259877886e-01 8.8456122155604021e+01 9.4441618555353941e+01 9.2124410569426601e+01 0 0 0
6398 3 3.3988566805513667e-02 8.4069876438871958e+01 9.4098477327023886e+01 9.2092835415337234e+01 0 0 0
1594 3 3.5206864956145612e-02 8.2115358427591588e+01 8.9724854368450607e+01 8.8782624962261309e+01 0 1 0
5869 2 -6.1015467287564316e-02 8.9624425816725662e+01 9.0614174027251153e+01 9.2248238374864940e+01 0 0 0
3565 1 -4.7045393098183330e-01 8.9016380792986268e+01 9.5119042138063335e+01 8.3819475459896864e+01 1 0 1
3569 2 1.3584211455493841e-01 8.8972166840886018e+01 9.5471139147926593e+01 8.5124205689540901e+01 1 0 1
3722 2 1.3730171349657541e-01 9.2109495603805200e+01 9.5498706268604607e+01 9.0027643362077555e+01 0 0 1
3720 2 -4.5252006915306120e-02 9.1312355796827703e+01 9.5615449706028471e+01 8.7975468398308564e+01 0 0 1
5865 3 2.3840553625738467e-01 8.9851434308392228e+01 8.9251579125070378e+01 8.9679228555006333e+01 0 0 0
2073 3 2.0901713844121356e-01 9.3112771387969744e+01 8.8992751358056893e+01 8.6222226120724187e+01 0 0 0
3705 2 -5.1071305666313106e-02 9.1815619302882624e+01 9.3150648418609990e+01 8.2243596096450176e+01 0 0 1
3702 1 -4.4714199543792155e-01 9.3169968423885251e+01 9.1356464362657874e+01 8.2504578029759443e+01 0 0 1
6370 2 -5.3095163047378935e-02 9.0529886809848350e+01 8.9317282664280469e+01 8.2647782985268250e+01 0 0 0
2081 3 2.0916470917204394e-01 9.4508656978281891e+01 8.9927267050805739e+01 9.1180462863619198e+01 0 0 0
6373 3 5.7140748870026459e-02 9.1427529711156666e+01 8.9698838012823273e+01 8.3135185206473452e+01 0 0 0
3708 3 6.6797675730623507e-02 9.1202457217989831e+01 9.4036444241345549e+01 8.2425045524550953e+01 0 0 1
6369 2 1.2319891668532239e-01 8.9187339652201942e+01 8.9383143924179208e+01 8.3129231970070222e+01 0 0 0
5872 3 6.5230406317313999e-02 9.0484809654827473e+01 9.0109900762660189e+01 9.1788527414659072e+01 0 0 0
2078 2 1.1073858678795728e-01 9.3340359425996141e+01 8.9633283147887539e+01 8.9168561727365343e+01 0 0 0
6376 1 -4.1984845158527678e-01 8.9359916698315232e+01 9.0880019041324971e+01 8.5304618278211422e+01 0 0 0
6386 2 -5.7961035256749997e-02 8.9224088787517630e+01 9.3143922288522859e+01 8.9317166530466679e+01 0 0 0
2083 2 8.7696403382836005e-02 9.2926735572675270e+01 9.2123671629692041e+01 9.1978796602230034e+01 0 0 0
2075 2 1.0362617754602052e-01 9.2724137424214121e+01 9.1181436142717800e+01 9.0940223054747563e+01 0 0 0
6387 2 -6.2841735106692193e-02 8.9564381803759346e+01 9.2494212313449353e+01 8.8071269607416809e+01 0 0 0
6389 3 6.6123145932184227e-02 8.9874326066746576e+01 9.3700633862737419e+01 8.9930554533620025e+01 0 0 0
6383 3 2.2826216294932644e-01 9.0472317043226326e+01 9.0997391235961359e+01 8.5590014317709077e+01 0 0 0
6390 3 7.4385769883348621e-02 9.0523140888313790e+01 9.2354785940466201e+01 8.7612121915730668e+01 0 0 0
2080 3 3.5923311979574081e-02 9.1635256425147276e+01 9.0197317134949174e+01 8.7790753689961932e+01 0 0 0
3710 1 -4.6565855113031607e-01 9.1981497583061355e+01 9.3725579474534271e+01 8.5374261266878690e+01 0 0 1
2079 3 7.4577594316462742e-02 9.0890476292044355e+01 9.1684321902235837e+01 8.9900999462340792e+01 0 0 0
3711 2 9.8715590475426274e-02 9.2383381939131112e+01 9.3587070737546043e+01 8.6872765330231431e+01 0 0 1
3714 2 1.0870112142930712e-01 9.2460882133343048e+01 9.2589700467887340e+01 8.4659991617752610e+01 0 0 1
3716 3 3.4637393063253107e-02 9.3762097622767072e+01 9.0897184629233280e+01 8.5377617895106454e+01 0 0 1
3713 2 -4.4696186820598685e-02 9.3209088830267603e+01 9.1826107499162816e+01 8.5640021428371881e+01 0 0 1
3715 3 9.6435382687943799e-02 9.3572369863374547e+01 9.2037748606306792e+01 8.7808447509807962e+01 0 0 1
3712 2 -7.4858386124904613e-02 9.3153871913611823e+01 9.2404129024410295e+01 8.6928409073985449e+01 0 0 1
2076 2 -6.6479161112563689e-02 9.1777452136321301e+01 9.1094250998353715e+01 8.9866949072453167e+01 0 0 0
2077 2 -6.2232912481726937e-02 9.2112334805865032e+01 9.0272723157348395e+01 8.8785925707120626e+01 0 0 0
3725 3 2.9274880331570874e-01 9.3224670978511639e+01 9.3693834142935060e+01 8.9961431904581133e+01 0 0 1
2074 1 -4.5733249933497033e-01 9.3642933717946818e+01 9.0163485437187433e+01 9.0509494456158549e+01 0 0 0
3706 2 1.0975037490470028e-01 9.2514088810572844e+01 9.2414417451450447e+01 8.3257758521393484e+01 0 0 1
3717 3 2.6356273038262412e-01 9.1334066597655152e+01 9.4489718032411830e+01 8.4886135800714428e+01 0 0 1
3719 2 9.8683166549860937e-02 9.2088884342533888e+01 9.4429693215745843e+01 8.7907990986837419e+01 0 0 1
3718 1 -4.8964520391793548e-01 9.2533295093766924e+01 9.4352546625999139e+01 8.9404390151946473e+01 0 0 1
3709 3 2.2859288105555428e-01 9.3646718791300543e+01 9.0465288840567055e+01 8.3019346019882391e+01 0 0 1
319 2 -1.0357720692992889e-01 9.5552511163355334e+01 9.4919470332813759e+01 8.9532705964524780e+01 0 0 1
324 3 1.4817129521658803e-02 9.5535864837166230e+01 9.3848089097341855e+01 9.1470380412654379e+01 0 0 1
320 2 1.2098224960580413e-01 9.5676734149613267e+01 9.3820538978891236e+01 9.0396602527438120e+01 0 0 1
2089 3 2.3629217996531540e-01 9.0988264270801736e+01 9.3403550824342830e+01 9.2161630163138625e+01 0 0 0
3573 3 2.4511252090295149e-01 8.9562160694935969e+01 9.5700670828583910e+01 8.3031946888194000e+01 1 0 1
3726 3 2.2036241458444149e-02 9.2389914440061801e+01 9.5704794621787769e+01 9.1066647248625884e+01 0 0 1
4653 2 -5.5925342055447282e-02 1.0053794884705044e+02 8.9003975043429548e+01 8.2277235537598685e+01 0 0 1
842 3 5.3826133269135407e-02 1.0247201821823415e+02 9.5224389734471615e+01 8.8289746611403885e+01 -1 1 0
3800 1 -4.2636901565219099e-01 1.0092637169497451e+02 8.9053824965187744e+01 8.6951009005413965e+01 0 0 0
4646 2 1.2006980723008812e-01 1.0039049778760702e+02 9.1525385022416373e+01 8.2399829724380311e+01 0 0 1
629 3 8.0211255005290145e-03 9.8062439848149538e+01 8.9114703832977241e+01 9.2154881671022338e+01 0 0 0
3818 2 -5.3666026720968416e-02 9.8098424357975148e+01 9.2828572473531324e+01 9.2263268094702141e+01 0 0 0
312 2 1.1171834834457052e-01 9.6694089241762455e+01 9.1247612565169263e+01 8.4994290725954386e+01 0 0 1
323 3 2.1474588034808345e-01 9.6058905190980468e+01 9.1638040677291315e+01 9.0401866479233291e+01 0 0 1
4642 1 -4.2982721285710201e-01 1.0012204431429041e+02 9.1744018458068780e+01 8.3810225885430569e+01 0 0 1
314 3 6.1352130031634700e-02 9.6707677355599216e+01 8.9170127944956462e+01 8.5785199140101312e+01 0 0 1
317 2 9.0498280944847673e-02 9.6178231857293625e+01 9.2928911031249243e+01 8.8311865742681690e+01 0 0 1
313 3 6.1556716775646059e-02 9.6283702486084621e+01 9.0144047125749353e+01 8.8148104659800254e+01 0 0 1
303 2 -3.6614336649182726e-02 9.6851224362586919e+01 9.2296531951171460e+01 8.2717998870602429e+01 0 0 1
316 1 -4.4664560157414185e-01 9.6051342836973305e+01 9.2628575150671040e+01 8.9860457652657800e+01 0 0 1
3808 1 -4.5918608934683280e-01 9.9736120442596132e+01 9.0888742404412824e+01 9.0230372676106768e+01 0 0 0
3815 3 2.1808699135839563e-01 9.8734599086970690e+01 9.0449762724776605e+01 9.0442444295374102e+01 0 0 0
321 3 6.3089891689531635e-02 9.5807210857554566e+01 9.4831530316065908e+01 8.7382284182559204e+01 0 0 1
318 2 -4.0931675511602782e-02 9.5826458816928820e+01 9.4305220209046297e+01 8.8275189880907476e+01 0 0 1
4637 2 -7.7249217884512014e-02 9.9264054458739011e+01 9.3908526583930708e+01 8.7674764052390870e+01 0 0 1
311 2 -5.9871454870901231e-02 9.6664093283277566e+01 9.0190221632488758e+01 8.5977832479513424e+01 0 0 1
4647 3 4.2681300043620682e-02 1.0011126356735244e+02 9.4910672872291457e+01 8.2753553504083087e+01 0 0 1
3823 3 2.3961894274849638e-01 1.0043466808916526e+02 9.5222471807077810e+01 9.1545418242603134e+01 0 0 0
3817 2 1.0601925193933570e-01 9.9285387605974591e+01 9.3157313992330032e+01 9.1493647807462878e+01 0 0 0
309 2 1.2199086160447101e-01 9.6410576329267570e+01 9.2136905702328832e+01 8.7218944835083505e+01 0 0 1
3392 3 7.4408968405390186e-02 1.0257987198216989e+02 9.5495284418245092e+01 8.3982359251675092e+01 -1 1 0
4633 3 2.5170888547997528e-01 9.7797309905935734e+01 9.5514959558605284e+01 8.9884326819721721e+01 0 0 1
4638 2 1.3317513955772584e-01 9.9113926870304581e+01 9.5256232514810804e+01 8.7165283308122753e+01 0 0 1
315 3 2.4500333808810418e-01 9.6576163013078684e+01 9.3449230678968149e+01 8.5265514529802971e+01 0 0 1
4636 2 -4.0757104341879437e-02 9.9392291024508722e+01 9.3051534504190727e+01 8.6541050917100279e+01 0 0 1
3816 1 -4.7936198926172585e-01 9.9584582795588858e+01 9.4556822009879269e+01 9.1809495895830153e+01 0 0 0
4635 2 9.6929341850403916e-02 9.9577031201989286e+01 9.3776348161939353e+01 8.5354910147902302e+01 0 0 1
3810 2 -5.3677616347206011e-02 1.0099283747462886e+02 9.2795678781560227e+01 8.9701630057815564e+01 0 0 0
308 1 -4.4465936085534552e-01 9.6491495226997841e+01 9.2441679387614428e+01 8.5752656277736733e+01 0 0 1
3807 3 2.1741491710440675e-01 1.0134180684777908e+02 8.9905852449155816e+01 8.6310013947182540e+01 0 0 0
4640 3 9.9011823218103714e-02 9.9161616053856790e+01 9.3602511779289387e+01 8.8678218477156364e+01 0 0 1
4634 1 -4.6113001840329748e-01 9.9393784709797814e+01 9.5214156798399955e+01 8.5787550178318924e+01 0 0 1
3809 2 8.9226678998107198e-02 9.9942136445088494e+01 9.2338757916335695e+01 9.0571232482760905e+01 0 0 0
4649 3 2.2355323408970454e-01 9.9684830240397730e+01 9.0867761601817392e+01 8.4420965794507651e+01 0 0 1
4643 2 9.8572851662117059e-02 9.9857762371669168e+01 9.3174210091915455e+01 8.4114596367239614e+01 0 0 1
300 1 -4.5132735803684826e-01 9.7076983498648474e+01 9.0029537119721255e+01 8.2684276108923740e+01 0 0 1
3804 2 9.0233289862225077e-02 1.0022941900322158e+02 8.9483523932226632e+01 8.8209340307823410e+01 0 0 0
306 3 6.1407855638704628e-02 9.6702667363478255e+01 9.3365212267961070e+01 8.2989469391411816e+01 0 0 1
3814 3 5.5501918150197234e-02 1.0186328074068670e+02 9.2004759093476821e+01 8.7932184225184557e+01 0 0 0
310 2 -6.0043384149453573e-02 9.6502730470354308e+01 9.0706793649798783e+01 8.7292211980100689e+01 0 0 1
4639 3 6.5353884214122804e-02 9.9434874846783657e+01 9.1968658552067097e+01 8.6560280430732064e+01 0 0 1
3812 2 1.0886793890188329e-01 1.0045640292081738e+02 9.0582209226286636e+01 8.8988172045180406e+01 0 0 0
3811 2 -6.3260290432312530e-02 1.0124847995686983e+02 9.1783736008280584e+01 8.8760705306269401e+01 0 0 0
304 2 1.1445854772178479e-01 9.6881940515859867e+01 9.1161364653600359e+01 8.3602491995446940e+01 0 0 1