LAMMPS data file via write_data, version 22 Dec 2022, timestep = 4000

1946 atoms
3 atom types

0 20.1182 xlo xhi
0 20.3224 ylo yhi
0 93.7738 zlo zhi

Masses

1 52
2 55.84
3 16

Atoms # charge

96 2 0.03427563260940018 1.43704 6.09672 0 0 0 0
101 1 0.04512427578236851 0 6.09672 2.03208 0 0 0
106 2 0.02246209611773793 1.43704 6.09672 4.06416 0 0 0
136 2 0.03712822336904267 1.43704 2.03224 0 0 0 0
141 2 0.03843480297372573 0 4.06448 0 0 0 0
146 2 0.02210507290391306 1.43704 4.06448 2.03208 0 0 0
151 2 0.0299233855926875 0 4.06448 4.06416 0 0 0
156 2 0.020320918894923 1.43704 4.06448 6.09717 0 0 0
161 1 0.04353944161102525 0 6.09672 6.09717 0 0 0
181 2 0.03238748162738964 0 0 0 0 0 0
186 2 0.02236150739249415 1.43704 0 2.03208 0 0 0
191 2 0.02744092516650663 0 2.03224 2.03208 0 0 0
196 2 0.02810940861588746 1.43704 2.03224 4.06416 0 0 0
201 2 0.02760519718254509 0 2.03224 6.09717 0 0 0
241 2 0.02847180427026395 0 0 4.06416 0 0 0
246 2 0.02036894600901034 1.43704 0 6.09717 0 0 0
346 2 0.03490586516881868 4.31113 6.09672 0 0 0 0
351 1 0.04147027611432137 2.87409 6.09672 2.03208 0 0 0
356 2 0.0258728169838831 4.31113 6.09672 4.06416 0 0 0
386 2 0.03197342642290712 4.31113 2.03224 0 0 0 0
391 2 0.03722637897905167 2.87409 4.06448 0 0 0 0
396 1 0.04243097894045204 4.31113 4.06448 2.03208 0 0 0
401 2 0.0295265078052105 2.87409 4.06448 4.06416 0 0 0
406 2 0.02809114748283437 4.31113 4.06448 6.09717 0 0 0
411 2 0.02791649670835965 2.87409 6.09672 6.09717 0 0 0
431 1 0.05759208747839499 2.87409 0 0 0 0 0
436 2 0.02110302887531012 4.31113 0 2.03208 0 0 0
441 2 0.02354165758355191 2.87409 2.03224 2.03208 0 0 0
446 2 0.0217899010120797 4.31113 2.03224 4.06416 0 0 0
451 1 0.0464473217824238 2.87409 2.03224 6.09717 0 0 0
491 1 0.04726097855197921 2.87409 0 4.06416 0 0 0
496 1 0.04167671690812964 4.31113 0 6.09717 0 0 0
601 2 0.0236397098595651 5.74797 6.09672 2.03208 0 0 0
641 2 0.03129070791972073 5.74797 4.06448 0 0 0 0
651 2 0.02868962189858137 5.74797 4.06448 4.06416 0 0 0
661 2 0.02706114468406133 5.74797 6.09672 6.09717 0 0 0
681 2 0.03423735166330241 5.74797 0 0 0 0 0
691 1 0.04270951044388488 5.74797 2.03224 2.03208 0 0 0
701 2 0.02535029217668396 5.74797 2.03224 6.09717 0 0 0
741 2 0.0280183138206248 5.74797 0 4.06416 0 0 0
596 1 0.05684229571614452 7.18501 6.09672 0 0 0 0
606 2 0.02970251059549044 7.18501 6.09672 4.06416 0 0 0
636 1 0.05543315788419351 7.18501 2.03224 0 0 0 0
646 2 0.02030228773826088 7.18501 4.06448 2.03208 0 0 0
656 2 0.02368986585845483 7.18501 4.06448 6.09717 0 0 0
686 2 0.0254044756321954 7.18501 0 2.03208 0 0 0
696 2 0.02859862355569841 7.18501 2.03224 4.06416 0 0 0
746 2 0.02818847030900742 7.18501 0 6.09717 0 0 0
851 2 0.02361086526334527 8.62206 6.09672 2.03208 0 0 0
891 2 0.03207831175482884 8.62206 4.06448 0 0 0 0
901 1 0.04643866147457525 8.62206 4.06448 4.06416 0 0 0
911 2 0.02581869737305536 8.62206 6.09672 6.09717 0 0 0
931 2 0.03348680878247905 8.62206 0 0 0 0 0
941 2 0.02401807304183804 8.62206 2.03224 2.03208 0 0 0
951 2 0.02518598912511306 8.62206 2.03224 6.09717 0 0 0
991 2 0.02880698671578342 8.62206 0 4.06416 0 0 0
846 1 0.05361535767996747 10.0591 6.09672 0 0 0 0
856 2 0.02634160605905429 10.0591 6.09672 4.06416 0 0 0
886 2 0.03854663844906768 10.0591 2.03224 0 0 0 0
896 2 0.02308413293355337 10.0591 4.06448 2.03208 0 0 0
906 1 0.04405749250042303 10.0591 4.06448 6.09717 0 0 0
936 2 0.02602064142634831 10.0591 0 2.03208 0 0 0
946 2 0.02619600689600369 10.0591 2.03224 4.06416 0 0 0
996 2 0.02568176775107663 10.0591 0 6.09717 0 0 0
1096 2 0.0337864803400432 12.9332 6.09672 0 0 0 0
1101 2 0.02549625993028027 11.4961 6.09672 2.03208 0 0 0
1106 2 0.02979134032671928 12.9332 6.09672 4.06416 0 0 0
1136 2 0.03906430694901525 12.9332 2.03224 0 0 0 0
1141 2 0.03737970514936054 11.4961 4.06448 0 0 0 0
1146 2 0.02246318667470804 12.9332 4.06448 2.03208 0 0 0
1151 1 0.04531441491178495 11.4961 4.06448 4.06416 0 0 0
1156 2 0.01773497253491713 12.9332 4.06448 6.09717 0 0 0
1161 2 0.02744299280973974 11.4961 6.09672 6.09717 0 0 0
1181 2 0.0358484847320974 11.4961 0 0 0 0 0
1186 2 0.02748734272827213 12.9332 0 2.03208 0 0 0
1191 2 0.02778797574147846 11.4961 2.03224 2.03208 0 0 0
1196 2 0.02635589640235717 12.9332 2.03224 4.06416 0 0 0
1201 2 0.02319598473354602 11.4961 2.03224 6.09717 0 0 0
1241 2 0.02984246206491951 11.4961 0 4.06416 0 0 0
1246 2 0.02846482390451815 12.9332 0 6.09717 0 0 0
1346 2 0.03319433606973932 15.8071 6.09672 0 0 0 0
1351 2 0.02331753419523986 14.3702 6.09672 2.03208 0 0 0
1356 2 0.02379218050046637 15.8071 6.09672 4.06416 0 0 0
1386 2 0.03733770357444961 15.8071 2.03224 0 0 0 0
1391 2 0.03791559457548835 14.3702 4.06448 0 0 0 0
1396 1 0.04273469581014974 15.8071 4.06448 2.03208 0 0 0
1401 1 0.04485494128811592 14.3702 4.06448 4.06416 0 0 0
1406 1 0.03993866976078091 15.8071 4.06448 6.09717 0 0 0
1411 2 0.02255489408973627 14.3702 6.09672 6.09717 0 0 0
1431 2 0.03732121360831855 14.3702 0 0 0 0 0
1436 1 0.04417856136075502 15.8071 0 2.03208 0 0 0
1441 2 0.02239635314969075 14.3702 2.03224 2.03208 0 0 0
1446 2 0.02277727452576398 15.8071 2.03224 4.06416 0 0 0
1451 1 0.04296696707154052 14.3702 2.03224 6.09717 0 0 0
1491 2 0.02786193940881044 14.3702 0 4.06416 0 0 0
1496 2 0.02238935188847809 15.8071 0 6.09717 0 0 0
1596 2 0.03469780406986023 18.6812 6.09672 0 0 0 0
1601 1 0.04413625011625066 17.2441 6.09672 2.03208 0 0 0
1606 2 0.02176822439676764 18.6812 6.09672 4.06416 0 0 0
1636 2 0.03940878369382375 18.6812 2.03224 0 0 0 0
1641 2 0.03589368227822472 17.2441 4.06448 0 0 0 0
1646 2 0.02277675019254404 18.6812 4.06448 2.03208 0 0 0
1651 2 0.02341199903676527 17.2441 4.06448 4.06416 0 0 0
1656 1 0.04166921739038478 18.6812 4.06448 6.09717 0 0 0
1661 1 0.04360647011569264 17.2441 6.09672 6.09717 0 0 0
1681 2 0.03196654998751911 17.2441 0 0 0 0 0
1686 1 0.04185344822037061 18.6812 0 2.03208 0 0 0
1691 2 0.02070248899163359 17.2441 2.03224 2.03208 0 0 0
1696 2 0.02868066115992099 18.6812 2.03224 4.06416 0 0 0
1701 2 0.02706216399765043 17.2441 2.03224 6.09717 0 0 0
1741 1 0.04445809227724695 17.2441 0 4.06416 0 0 0
1746 2 0.02622546247718726 18.6812 0 6.09717 0 0 0
51 2 0.0358357034058422 0 8.12896 0 0 0 0
56 2 0.02129780125861153 1.43704 8.12896 2.03208 0 0 0
111 2 0.03014272240374218 0 8.12896 4.06416 0 0 0
116 2 0.02334205754106893 1.43704 8.12896 6.09717 0 0 0
301 2 0.03987217836320776 2.87409 8.12896 0 0 0 0
306 2 0.02094509530923459 4.31113 8.12896 2.03208 0 0 0
361 1 0.05024568060410752 2.87409 8.12896 4.06416 0 0 0
366 2 0.02757784026508996 4.31113 8.12896 6.09717 0 0 0
551 2 0.03548068316722401 5.74797 8.12896 0 0 0 0
611 2 0.02710264460805348 5.74797 8.12896 4.06416 0 0 0
6 2 0.03705400006098558 1.43704 10.1612 0 0 0 0
11 2 0.0324317152694677 0 12.1934 0 0 0 0
16 1 0.04235403824277401 1.43704 12.1934 2.03208 0 0 0
61 2 0.02443648465941805 0 10.1612 2.03208 0 0 0
66 2 0.02577842009793229 1.43704 10.1612 4.06416 0 0 0
71 2 0.027535450170012 0 12.1934 4.06416 0 0 0
76 2 0.02651566961759562 1.43704 12.1934 6.09717 0 0 0
121 2 0.0307525685021713 0 10.1612 6.09717 0 0 0
256 2 0.0366513880313352 4.31113 10.1612 0 0 0 0
261 2 0.03782423647090827 2.87409 12.1934 0 0 0 0
266 2 0.02041153334629279 4.31113 12.1934 2.03208 0 0 0
311 2 0.02304651903873426 2.87409 10.1612 2.03208 0 0 0
316 2 0.02492432665137802 4.31113 10.1612 4.06416 0 0 0
321 1 0.04512978849732668 2.87409 12.1934 4.06416 0 0 0
326 2 0.02460579748944731 4.31113 12.1934 6.09717 0 0 0
371 2 0.02637057098762299 2.87409 10.1612 6.09717 0 0 0
511 2 0.03772600630202193 5.74797 12.1934 0 0 0 0
561 1 0.04727373006821135 5.74797 10.1612 2.03208 0 0 0
571 2 0.02861488360748801 5.74797 12.1934 4.06416 0 0 0
621 2 0.02820368048219381 5.74797 10.1612 6.09717 0 0 0
556 2 0.02644723142716403 7.18501 8.12896 2.03208 0 0 0
616 1 0.04605966098358653 7.18501 8.12896 6.09717 0 0 0
801 2 0.03099465451929544 8.62206 8.12896 0 0 0 0
861 2 0.02775687952987779 8.62206 8.12896 4.06416 0 0 0
506 2 0.03647407931255214 7.18501 10.1612 0 0 0 0
516 2 0.02552541056850349 7.18501 12.1934 2.03208 0 0 0
566 2 0.02498684373777349 7.18501 10.1612 4.06416 0 0 0
576 2 0.02565190546728627 7.18501 12.1934 6.09717 0 0 0
761 2 0.03385050478151896 8.62206 12.1934 0 0 0 0
811 2 0.02135583695448046 8.62206 10.1612 2.03208 0 0 0
821 2 0.02577266597239126 8.62206 12.1934 4.06416 0 0 0
871 1 0.04386072090029038 8.62206 10.1612 6.09717 0 0 0
806 2 0.02382345943000295 10.0591 8.12896 2.03208 0 0 0
866 2 0.02377838115986822 10.0591 8.12896 6.09717 0 0 0
1051 1 0.04828379036763135 11.4961 8.12896 0 0 0 0
1056 2 0.02231856459851311 12.9332 8.12896 2.03208 0 0 0
1111 2 0.02730182747039257 11.4961 8.12896 4.06416 0 0 0
1116 2 0.02689515140119484 12.9332 8.12896 6.09717 0 0 0
756 1 0.05031700370237133 10.0591 10.1612 0 0 0 0
766 1 0.03864896174882605 10.0591 12.1934 2.03208 0 0 0
816 1 0.04042592292195187 10.0591 10.1612 4.06416 0 0 0
826 2 0.02094573754738047 10.0591 12.1934 6.09717 0 0 0
1006 1 0.04452919066911155 12.9332 10.1612 0 0 0 0
1011 1 0.04702343395578079 11.4961 12.1934 0 0 0 0
1016 1 0.03686369798332413 12.9332 12.1934 2.03208 0 0 0
1061 1 0.03209823127081413 11.4961 10.1612 2.03208 0 0 0
1066 1 0.04133548208292748 12.9332 10.1612 4.06416 0 0 0
1071 1 0.03750158158342194 11.4961 12.1934 4.06416 0 0 0
1076 2 0.02689006109415669 12.9332 12.1934 6.09717 0 0 0
1121 1 0.04376749898752423 11.4961 10.1612 6.09717 0 0 0
1301 1 0.05553169968705469 14.3702 8.12896 0 0 0 0
1306 2 0.024057379567834 15.8071 8.12896 2.03208 0 0 0
1361 2 0.02929109041236903 14.3702 8.12896 4.06416 0 0 0
1366 2 0.02677955693579892 15.8071 8.12896 6.09717 0 0 0
1551 2 0.03479123996672177 17.2441 8.12896 0 0 0 0
1556 2 0.02256097913456969 18.6812 8.12896 2.03208 0 0 0
1611 2 0.02775787965595494 17.2441 8.12896 4.06416 0 0 0
1616 2 0.02676019499616708 18.6812 8.12896 6.09717 0 0 0
1256 2 0.03331232559998049 15.8071 10.1612 0 0 0 0
1261 1 0.05133501318101234 14.3702 12.1934 0 0 0 0
1266 2 0.02561804734444891 15.8071 12.1934 2.03208 0 0 0
1311 2 0.01813589630737953 14.3702 10.1612 2.03208 0 0 0
1316 1 0.04929745732627164 15.8071 10.1612 4.06416 0 0 0
1321 2 0.02260033315253167 14.3702 12.1934 4.06416 0 0 0
1326 2 0.02482566914200263 15.8071 12.1934 6.09717 0 0 0
1371 2 0.02597517284839521 14.3702 10.1612 6.09717 0 0 0
1506 1 0.05742930335709466 18.6812 10.1612 0 0 0 0
1511 2 0.033717528635232 17.2441 12.1934 0 0 0 0
1516 2 0.0238099587561183 18.6812 12.1934 2.03208 0 0 0
1561 2 0.02418919506130058 17.2441 10.1612 2.03208 0 0 0
1566 2 0.03080923412607643 18.6812 10.1612 4.06416 0 0 0
1571 2 0.02974785881680791 17.2441 12.1934 4.06416 0 0 0
1576 2 0.02879450098219834 18.6812 12.1934 6.09717 0 0 0
1621 2 0.02479409832831393 17.2441 10.1612 6.09717 0 0 0
21 1 0.04349763946117669 0 14.2257 2.03208 0 0 0
26 2 0.01841232233446573 1.43704 14.2257 4.06416 0 0 0
31 1 0.04963911215967651 0 16.2579 4.06416 0 0 0
36 2 0.02539433115335886 1.43704 16.2579 6.09717 0 0 0
41 2 0.02751250204948712 0 18.2902 6.09717 0 0 0
81 2 0.03116048104067932 0 14.2257 6.09717 0 0 0
176 2 0.03514242183237152 1.43704 18.2902 0 0 0 0
216 2 0.03568566422531833 1.43704 14.2257 0 0 0 0
221 2 0.03583873611929939 0 16.2579 0 0 0 0
226 2 0.0242458848688958 1.43704 16.2579 2.03208 0 0 0
231 2 0.02366458042745537 0 18.2902 2.03208 0 0 0
236 2 0.02820383295917349 1.43704 18.2902 4.06416 0 0 0
271 2 0.0218113070882939 2.87409 14.2257 2.03208 0 0 0
276 1 0.04502421329598766 4.31113 14.2257 4.06416 0 0 0
281 2 0.02802832125759895 2.87409 16.2579 4.06416 0 0 0
286 2 0.02743462686214823 4.31113 16.2579 6.09717 0 0 0
291 2 0.02443890055174382 2.87409 18.2902 6.09717 0 0 0
331 1 0.04544683325937086 2.87409 14.2257 6.09717 0 0 0
426 2 0.03568872756173808 4.31113 18.2902 0 0 0 0
466 2 0.03917678036806471 4.31113 14.2257 0 0 0 0
471 2 0.03970462882709294 2.87409 16.2579 0 0 0 0
476 2 0.02633689068435811 4.31113 16.2579 2.03208 0 0 0
481 2 0.02621923577611358 2.87409 18.2902 2.03208 0 0 0
486 2 0.02810896471951929 4.31113 18.2902 4.06416 0 0 0
521 2 0.02546432668710538 5.74797 14.2257 2.03208 0 0 0
531 2 0.02946398567565191 5.74797 16.2579 4.06416 0 0 0
541 2 0.02747824608398124 5.74797 18.2902 6.09717 0 0 0
581 2 0.02356847850504906 5.74797 14.2257 6.09717 0 0 0
721 2 0.03781993744143382 5.74797 16.2579 0 0 0 0
731 2 0.02896954156787365 5.74797 18.2902 2.03208 0 0 0
526 2 0.02833988518770258 7.18501 14.2257 4.06416 0 0 0
536 2 0.02558556386042091 7.18501 16.2579 6.09717 0 0 0
676 2 0.03819659747195046 7.18501 18.2902 0 0 0 0
716 2 0.03899738431192187 7.18501 14.2257 0 0 0 0
726 2 0.02786100875527298 7.18501 16.2579 2.03208 0 0 0
736 2 0.02791093823375079 7.18501 18.2902 4.06416 0 0 0
771 2 0.02699367765419707 8.62206 14.2257 2.03208 0 0 0
781 2 0.02669495053711008 8.62206 16.2579 4.06416 0 0 0
791 1 0.04323208535289639 8.62206 18.2902 6.09717 0 0 0
831 1 0.05030091615899306 8.62206 14.2257 6.09717 0 0 0
971 2 0.0353104057564985 8.62206 16.2579 0 0 0 0
981 2 0.02244379685457131 8.62206 18.2902 2.03208 0 0 0
776 2 0.0260047820862413 10.0591 14.2257 4.06416 0 0 0
786 2 0.02378226590678236 10.0591 16.2579 6.09717 0 0 0
926 1 0.05642456814965673 10.0591 18.2902 0 0 0 0
966 2 0.03747050514060039 10.0591 14.2257 0 0 0 0
976 2 0.02691463620454869 10.0591 16.2579 2.03208 0 0 0
986 1 0.04687289668030675 10.0591 18.2902 4.06416 0 0 0
1021 2 0.02126682942963897 11.4961 14.2257 2.03208 0 0 0
1026 1 0.0485737898414241 12.9332 14.2257 4.06416 0 0 0
1031 2 0.02727727793414077 11.4961 16.2579 4.06416 0 0 0
1036 2 0.03051835778689579 12.9332 16.2579 6.09717 0 0 0
1041 2 0.02352202138289038 11.4961 18.2902 6.09717 0 0 0
1081 2 0.0263634291588431 11.4961 14.2257 6.09717 0 0 0
1176 2 0.03589617619559059 12.9332 18.2902 0 0 0 0
1216 2 0.03194005864874043 12.9332 14.2257 0 0 0 0
1221 2 0.03613718837649826 11.4961 16.2579 0 0 0 0
1226 2 0.0255111363588092 12.9332 16.2579 2.03208 0 0 0
1231 2 0.02250255617976195 11.4961 18.2902 2.03208 0 0 0
1236 2 0.03148177562027427 12.9332 18.2902 4.06416 0 0 0
1271 2 0.01700175387425858 14.3702 14.2257 2.03208 0 0 0
1276 2 0.03161865196497784 15.8071 14.2257 4.06416 0 0 0
1281 2 0.02658564292043755 14.3702 16.2579 4.06416 0 0 0
1286 2 0.0257822992390575 15.8071 16.2579 6.09717 0 0 0
1291 2 0.02918854430730406 14.3702 18.2902 6.09717 0 0 0
1331 2 0.02461233441012739 14.3702 14.2257 6.09717 0 0 0
1426 2 0.03421531203356129 15.8071 18.2902 0 0 0 0
1466 1 0.05162956945604789 15.8071 14.2257 0 0 0 0
1471 1 0.0524718325227326 14.3702 16.2579 0 0 0 0
1476 1 0.04493735201185699 15.8071 16.2579 2.03208 0 0 0
1481 2 0.02259165996922308 14.3702 18.2902 2.03208 0 0 0
1486 2 0.02537589716594675 15.8071 18.2902 4.06416 0 0 0
1521 2 0.02328890383321841 17.2441 14.2257 2.03208 0 0 0
1526 2 0.02700096862507358 18.6812 14.2257 4.06416 0 0 0
1531 2 0.02815985732572338 17.2441 16.2579 4.06416 0 0 0
1536 2 0.02590260491391214 18.6812 16.2579 6.09717 0 0 0
1541 1 0.04663112221560393 17.2441 18.2902 6.09717 0 0 0
1581 2 0.02710886146602906 17.2441 14.2257 6.09717 0 0 0
1676 1 0.05754665036281888 18.6812 18.2902 0 0 0 0
1716 2 0.03772655796520778 18.6812 14.2257 0 0 0 0
1721 2 0.0309221629920137 17.2441 16.2579 0 0 0 0
1726 2 0.02196468671923615 18.6812 16.2579 2.03208 0 0 0
1731 2 0.0186515029084183 17.2441 18.2902 2.03208 0 0 0
1736 2 0.02384919190810055 18.6812 18.2902 4.06416 0 0 0
17 2 0.02358321619108046 1.4906497658548679 1.9817226615777224 11.97733922368928 0 0 0
166 1 0.0428726840841895 1.5013183131943397 6.116428859130671 8.142745155814723 0 0 0
206 2 0.02587026699053821 1.36400001967696 1.8716707505749028 8.125495880298558 0 0 0
217 2 0.02074617228975111 1.395092323774552 4.167374583979341 9.971687193711402 0 0 0
227 1 0.04409933975669789 1.5611395646662454 6.163556548841415 12.009087713818413 0 0 0
262 2 0.02848547913874346 2.849606505362454 1.8865139440551109 9.92284928916965 0 0 0
267 2 0.02153917984133807 4.261668678512546 2.0253100633197776 11.958819517009132 0 0 0
272 1 0.04468768295280341 2.964924791834582 3.9742268660228417 11.882806496141026 0 0 0
416 2 0.0245740554860676 4.431680650055879 6.228779388832925 8.03553611697799 0 0 0
456 2 0.02000450557768135 4.431158986079183 2.0129510091654774 8.093070941067491 0 0 0
461 2 0.02767147797068771 3.0308383009849185 4.100206699911301 8.156904961472055 0 0 0
467 2 0.01849136935137059 4.4010940779971985 4.047832712494209 10.03088573943023 0 0 0
472 1 0.04357464924692145 2.989119464988575 6.1282882488309935 10.082299720613385 0 0 0
477 2 0.01618614952992709 4.190115007677747 6.009277125578581 12.157518130525816 0 0 0
512 1 0.04404725269087339 5.848101317340695 1.995145448855328 10.089434478168348 0 0 0
522 1 0.0493472459268272 5.715814535409032 4.236428127924785 12.034305254761552 0 0 0
711 1 0.04535855189381983 5.826127377348347 4.178473671198968 8.0838207365104 0 0 0
722 2 0.02191695607473442 5.685085420145333 6.252111827721782 10.035558387129203 0 0 0
251 1 0.04350806327057792 2.8294199542527165 20.2455900836966 8.09514118433389 0 -1 0
12 2 0.0311770968496461 0.06125993708520289 2.2998398704967586 10.247110087090416 0 0 0
7 2 0.02175161854813975 1.0759552060881274 20.270918452912166 9.983107782338767 0 -1 0
22 2 0.02553001375439768 20.100438877967488 4.153800537008509 11.857328792725005 -1 0 0
211 1 0.0443960153612642 0.12834434962320804 4.073687038040975 7.934027259137378 0 0 0
562 2 0.02536343795391378 5.944672125325889 0.10092669945999992 11.955596871660461 0 0 0
257 2 0.02217754752206235 4.321261377724739 0.020135390708837488 10.152429697024902 0 0 0
312 1 0.05174528000838645 2.8974813887759896 0.015285737076998497 11.795038692733106 0 0 0
62 2 0.02357508095214247 19.94764395139165 20.137948585982944 12.081336730423946 -1 -1 0
517 2 0.01808598430922886 7.219230760561116 2.2863669338402697 12.078082196989975 0 0 0
666 2 0.02464211740913871 7.101323590532631 6.148756095111909 8.112958857532686 0 0 0
706 1 0.04248706762228397 7.088337411609035 2.064289001325868 8.025898095213996 0 0 0
717 1 0.03831445140889125 7.23199161092945 4.210369772939584 10.090351634485693 0 0 0
727 2 0.02080753381071933 7.192184347690205 6.222991102636876 12.12673288951321 0 0 0
762 1 0.03922274302074175 8.64396476422339 2.0266787720836286 10.078432418478688 0 0 0
772 2 0.02267962565298077 8.697193434664426 4.190300103247478 12.104468788538101 0 0 0
961 2 0.01885007683078468 8.679450183536511 4.313274765750638 7.978955437145377 0 0 0
972 1 0.0467295719718565 8.711773094329619 6.208783524324224 10.232353838360083 0 0 0
767 2 0.01664062650929037 10.10143430750052 2.1360753524681257 12.004675384690113 0 0 0
916 2 0.02796537262490736 10.105103631100116 6.131871927995967 8.11280613570606 0 0 0
956 1 0.04158237866029961 10.127950277514822 2.2277483606701147 8.089540344414157 0 0 0
967 1 0.04403856789000199 10.135683170097932 4.030548237083524 10.035823978772958 0 0 0
977 2 0.02711721459324722 10.234567500175244 6.262929381034821 12.289053713888876 0 0 0
1012 1 0.04110660769908567 11.489625769579098 1.8444758150935787 10.125683559168142 0 0 0
1017 1 0.04605625530921575 12.824719596676971 1.9290953750348894 12.165564467432674 0 0 0
1022 2 0.02511219037437158 11.368352052224923 4.003715001980352 11.941812515206575 0 0 0
1166 1 0.04569891007619177 13.036556272958013 6.002921597793254 8.105679623743002 0 0 0
1206 1 0.0439418965534957 12.938480799186113 2.0293165857892395 8.137396921569435 0 0 0
1211 2 0.01889510258751539 11.595325109286911 4.064361481606651 8.043228247162409 0 0 0
1217 2 0.0202438201688795 13.042121362793576 4.162825362300999 10.124257401933017 0 0 0
1222 2 0.02631844623442852 11.60132443563311 6.217744314491946 10.263081679769186 0 0 0
1227 2 0.02744576434713904 12.955274121107989 5.998876936853265 12.03917691478822 0 0 0
812 1 0.04267182442153578 8.558026192224837 0.2425706879108134 12.02416951940326 0 0 0
1007 2 0.02441979057986567 12.961047628928545 0.003732141616684004 10.143106383462293 0 0 0
757 2 0.02150250380911604 9.956943818303237 20.309513991849013 9.951237831685969 0 -1 0
1001 2 0.02387262690963416 11.282979969073338 0.03270742786867617 7.964423336809807 0 0 0
222 2 0.02724315461896005 19.969034386873446 6.0527064185453145 10.134920872678423 -1 0 0
1257 2 0.02587396717822248 15.788262071915284 20.145065957324686 9.904975955786709 0 -1 0
1262 2 0.02186848173897427 14.371272741646457 1.9595168408082773 10.131583372928878 0 0 0
1267 2 0.01960592543741741 15.4323986010528 2.152087383558828 12.0078180343438 0 0 0
1272 2 0.02424685346279296 14.292281515202694 4.026325098694528 11.966161738098293 0 0 0
1416 1 0.03614365362506831 15.80237910830121 6.017363177121285 8.15907203017778 0 0 0
1456 2 0.02369536155239454 15.727316117570316 2.002738721030836 8.160927425150474 0 0 0
1461 1 0.03691986428833639 14.402254267936955 3.9192435669033556 8.044260929628175 0 0 0
1467 1 0.03733255020919884 15.687866296845765 4.168154696746392 10.050690275568078 0 0 0
1472 1 0.03701374647099438 14.270097187293183 6.1444737526824 10.030276852045906 0 0 0
1477 1 0.03752484453871609 15.786766503870254 6.132105963483374 11.848965987973969 0 0 0
1512 2 0.02717537665527682 16.934728780556554 1.9071887373483318 9.994078516685676 0 0 0
1517 2 0.01892284579864495 18.603292403017065 1.8966310784675922 11.745938491882828 0 0 0
1522 1 0.04511140658389851 17.20182962884705 4.0501939843468335 11.989964578964935 0 0 0
1666 2 0.01748141845598555 18.686571666552567 5.971478273427686 8.070137351409581 0 0 0
1706 2 0.0276830037750228 18.732972099979875 1.886386229082707 8.310860269642136 0 0 0
1711 2 0.02035626969393543 17.338898138991723 3.9297271160165246 8.078108148249129 0 0 0
1717 2 0.02522567485556204 18.51600285779646 3.9201810545843476 9.929342559812335 0 0 0
1722 1 0.04176115714853947 17.22046216526307 6.057467597456578 9.910800813616612 0 0 0
1727 2 0.02404412736634594 18.713369969212923 6.121527160755109 12.135119146522895 0 0 0
1501 2 0.0264739327710047 17.26487016957343 20.244456014307858 7.821869901018686 0 -1 0
1507 1 0.04845643843009101 18.6555140217978 20.221984760890823 9.997733134197114 0 -1 0
1562 1 0.04245436164789708 17.104934938834848 0.10899617114324711 12.01905913203091 0 0 0
1312 1 0.04231461246135072 14.348845949675486 20.317388101954926 12.033995975865677 0 -1 0
177 2 0.0251563060250951 1.369133261706211 8.117935076173536 10.120026378862946 0 0 0
421 2 0.02340076981207957 2.870372298153943 8.028212800548832 8.122581097572416 0 0 0
427 2 0.02524312880884139 4.2007159281260025 8.166861550558721 10.119226457063913 0 0 0
482 2 0.02480068749417053 2.9494235076347572 7.913416691692741 12.111410428393398 0 0 0
671 2 0.02992054207984013 5.599927075971474 8.243085800922819 8.184242310262468 0 0 0
732 1 0.0505154235388719 5.766892507200303 8.063496570120687 11.868160882701087 0 0 0
126 1 0.0497401293491725 1.6868403930009712 10.076893783723907 8.172114226606636 0 0 0
137 2 0.02582969006610578 1.548995985436065 12.08312387827451 9.981562509436186 0 0 0
187 2 0.03226097850350999 1.5801760529456659 10.045730498262095 12.197736624520758 0 0 0
376 2 0.0272767078449744 4.217455918465401 10.3982187192748 8.174843144727125 0 0 0
381 2 0.02534289878421389 2.908542541939168 12.331542703110344 8.131161114138637 0 0 0
387 2 0.02587836649801476 4.171309023737131 12.363023277088704 10.11447717513952 0 0 0
432 2 0.02596023470876678 3.053053303749026 10.34927075730235 10.162749397004252 0 0 0
437 2 0.02729671264056701 4.345536110001371 10.412747856297004 12.116631335716828 0 0 0
442 2 0.02666938412619264 3.0679231971749314 12.318861192083588 12.059948366473018 0 0 0
631 2 0.02996592028145147 5.72852187814307 12.355766109268131 7.970688158882998 0 0 0
682 2 0.02869129971956313 5.58605872918378 10.375526082170857 9.987942306624332 0 0 0
692 2 0.02841766977234372 5.616715629890377 12.303786593496719 11.925362117625768 0 0 0
182 2 0.02678725418177843 0.13157868834362102 10.065422748857918 10.081185651540387 0 0 0
131 2 0.02472417018723505 20.03928376423884 12.24302206166472 8.161390818411737 -1 0 0
677 2 0.02380112077220433 7.107534912140653 8.11575505759959 10.026088182534785 0 0 0
921 2 0.02666510272371801 8.66522184676551 8.076286934937421 8.084138433207801 0 0 0
982 2 0.02563269785544678 8.443485146671225 8.272984228002553 11.876002260030251 0 0 0
626 2 0.02655336114380032 7.08651146595193 10.155502509345052 8.053490084677426 0 0 0
637 2 0.02912417366115657 7.325703785684075 12.047516437319153 10.091971413561796 0 0 0
687 2 0.02507044633651878 7.098138929811727 10.232326633847558 11.944057740121524 0 0 0
881 2 0.02793993373193852 8.609239389454077 12.132802136009516 8.016560847973114 0 0 0
932 2 0.03044172792213706 8.63504602108174 10.359330252359001 9.993380004511707 0 0 0
942 2 0.02754849922722993 8.509015205468755 12.281631595383589 12.23594933607506 0 0 0
927 2 0.02813612179801762 9.860493427893822 8.239053264043777 10.042765829700803 0 0 0
1171 2 0.0280084094127045 11.57098354155917 8.125753435708175 8.049499860556995 0 0 0
1177 2 0.02617053802658673 13.149934179207328 8.303925871666815 9.914636000809134 0 0 0
1232 2 0.02862868938163653 11.440149335282351 8.18747685337559 11.916011494694073 0 0 0
876 2 0.02733436725851433 10.287132560854785 10.077115891876318 8.18044799790543 0 0 0
887 2 0.02789783293346891 10.073740238575583 12.244233037980463 10.033008062411753 0 0 0
937 2 0.0251620873624982 10.021051162757969 10.340129171808007 11.970406449854782 0 0 0
1126 2 0.02889892184430991 13.017176526343833 10.321158333554818 8.384114328014094 0 0 0
1131 2 0.02844017216886109 11.459625240758893 12.48995944955645 8.117068810139727 0 0 0
1137 1 0.04633774408343883 13.032503500233316 12.298998722926243 10.217807160589613 0 0 0
1182 2 0.02575667021102573 11.453714818284261 10.15915926026161 10.10239218683333 0 0 0
1187 1 0.0447932305602709 12.956230585612039 10.12042262674613 12.071416912837178 0 0 0
1192 2 0.02573394942399867 11.422104677395685 12.399639399296321 12.260508151772141 0 0 0
192 2 0.0282071958118683 0.14028733059618745 12.200320479052008 11.94246937716555 0 0 0
171 2 0.02732465644189346 20.062647695395473 8.122116427739703 8.186101487259515 -1 0 0
232 2 0.02721854916727302 20.013818451407737 8.177032752961274 12.196460229073171 -1 0 0
1421 2 0.02610481057690249 14.301476525296799 8.172166741933204 7.943967881910915 0 0 0
1427 2 0.02505147953049046 15.77349411332845 8.30481540600308 9.985896084893705 0 0 0
1482 2 0.02423343741575957 14.368603221860683 8.122661533572575 12.151279840411698 0 0 0
1671 2 0.02620877367654136 17.280046017925162 7.939982705136332 7.893614713175394 0 0 0
1677 2 0.02904125932771373 18.519756828007715 8.298112832263284 9.991923499779073 0 0 0
1732 1 0.04706440720876439 17.324436325792437 8.172451749344496 12.234134213148115 0 0 0
1376 2 0.02938822050717731 15.93160364343673 10.088456661501208 8.01979112516277 0 0 0
1381 2 0.02597664667292448 14.380873338808192 12.383331709433754 7.988863198317198 0 0 0
1387 2 0.02433751904229878 15.555078085063453 12.305914708678673 9.99041103293517 0 0 0
1432 2 0.02525740271267118 14.39094564593927 10.117228178067371 10.128960646139648 0 0 0
1437 2 0.02799585154905299 15.579297139999733 10.229396996908784 12.252592588125541 0 0 0
1442 2 0.02167068451148374 14.50046363838729 12.242342031903087 12.142987384624783 0 0 0
1626 2 0.02576576791685414 18.701728531724985 10.043261231878029 8.057304234713069 0 0 0
1631 1 0.0423801426403628 17.174193418756033 12.147388959426252 7.969243392075355 0 0 0
1637 1 0.04825072852079557 18.751552340880433 12.114811784899057 9.958436432296054 0 0 0
1682 2 0.02755392460575835 17.039715381610158 10.22319626188656 9.963369010056867 0 0 0
1687 2 0.02549325576648222 18.517617742246333 10.039469873289894 12.052300548078282 0 0 0
1692 2 0.02896330426774223 17.25612512730758 12.085257301730296 12.084127621714513 0 0 0
501 2 0.02463462658014712 5.581247902597512 20.207284939125945 8.224766439261055 0 -1 0
46 1 0.04819880940126274 1.4429682074441197 18.311433950267737 8.19506689919243 0 0 0
57 2 0.0280586081489843 1.378196632468434 18.34728164850151 11.837796926655908 0 0 0
86 2 0.02858891872684979 1.5149057593178874 14.393056557195807 8.134889170393242 0 0 0
97 2 0.02766041999694038 1.4610835092438021 16.18809057760043 10.172808269594555 0 0 0
147 2 0.02775348965758631 1.5519674358091147 14.083794520266085 11.789822771011174 0 0 0
296 2 0.02560531743228321 4.486969843475334 18.227637269969872 8.007161799812618 0 0 0
302 2 0.02446262160817348 3.116897744897703 18.27765070517162 9.911931371131603 0 0 0
307 2 0.02843518190909471 4.424010549659098 18.26746903655814 12.152750828297053 0 0 0
336 2 0.02370013698304827 4.42673297525845 14.28103540493991 8.097857115105285 0 0 0
341 2 0.02536887215470795 3.0062105611290884 16.197800990925117 8.124630414560649 0 0 0
347 2 0.02945507099121349 4.1411973686964 16.326518050902376 9.960775582100903 0 0 0
352 2 0.0314800061582246 2.905602447923326 16.2046268184348 12.149828992379963 0 0 0
392 2 0.02759542290736598 3.091805762370977 14.253722862467924 9.94035061179147 0 0 0
397 2 0.02689102165286959 4.37609427352318 14.2487198148503 12.18715346410355 0 0 0
552 2 0.03179421087676947 5.916881815189613 18.255083884233624 10.157379324721921 0 0 0
591 2 0.028341240902512 5.767962607210128 16.06988018461501 8.004269886076516 0 0 0
602 2 0.02824217272248562 5.7962156860813385 16.207753682940112 12.190118874457632 0 0 0
642 2 0.02854261124295075 5.775767893426278 14.310482454240754 10.069103326831511 0 0 0
1 2 0.02460088219177033 20.03649014485186 20.276614711966502 7.970194168942753 -1 -1 0
102 2 0.02387034523102667 0.2851302662040928 16.30704855939252 12.198939228312218 0 0 0
142 2 0.02701768362289386 0.059345421678333767 14.155633147645073 9.990782042847936 0 0 0
507 2 0.02277778450378205 7.164471891864013 0.03710045115780626 9.729338535277675 0 0 0
751 2 0.02220613317015394 8.653407268737011 0.0944657447600287 8.212403524204932 0 0 0
1062 2 0.02033241537139398 11.480521959005792 0.12660064524800815 12.101468211164654 0 0 0
546 2 0.02679262687659663 7.125774166178176 18.30719554974983 8.007668793551733 0 0 0
557 2 0.02634610561239217 7.2001592568970985 18.3560124042241 12.190563668496218 0 0 0