#Input file for lammps
 
9706 atoms
4 atom types
 
0.0 76.4566 xlo xhi
0.0 76.4566 ylo yhi
0.0 149.719 zlo zhi
 
Masses
 
1 28.06
2 1.008
3 12
4 14
 
Atoms
 
      1 1 0      1.02739       3.6451       2.2844
      2 1 0      2.93881      3.11864      3.56537
      3 1 0      2.93881      1.02739      4.78385
      4 1 0      1.02739      1.02739      6.17727
      5 1 0      1.02739      2.92928      7.57431
      6 1 0      2.93881       2.9316      8.92834
      7 1 0      2.93881      1.02739      10.2835
      8 1 0      1.02739      1.02739       11.635
      9 1 0      1.02739      2.93898      12.9865
     10 1 0      2.93881      2.93893      14.3389
     11 1 0      2.93881      1.02739      15.6913
     12 1 0      1.02739      1.02739      17.0437
     13 1 0      1.02739      2.93881      18.3961
     14 1 0      2.93881      2.93881      19.7485
     15 1 0      2.93881      1.02751      21.1009
     16 1 0      1.02739      1.02757      22.4533
     17 1 0      1.02739      2.93881      23.8068
     18 1 0      2.93881      2.93881      25.1608
     19 1 0      2.93881      1.02018      26.5115
     20 1 0      1.02739      1.01786      27.8655
     21 1 0      1.02739      2.93881       29.171
     22 1 0      2.93881      2.93881      30.5161
     23 1 0      2.93881      1.20722      31.8745
     24 1 0      1.02739      1.73369      33.1554
     25 1 0      1.02739      6.05535       2.2844
     26 1 0      2.93881      6.58182      3.56537
     27 1 0      2.93881      4.85023      4.92369
     28 1 0      1.02739      4.85023      6.26881
     29 1 0      1.02739      6.77117      7.57431
     30 1 0      2.93881      6.76885      8.92834
     31 1 0      2.93881      4.85023       10.279
     32 1 0      1.02739      4.85023       11.633
     33 1 0      1.02739      6.76147      12.9865
     34 1 0      2.93881      6.76152      14.3389
     35 1 0      2.93881      4.85023      15.6913
     36 1 0      1.02739      4.85023      17.0437
     37 1 0      1.02739      6.76164      18.3961
     38 1 0      2.93881      6.76164      19.7485
     39 1 0      2.93881      4.85011      21.1009
     40 1 0      1.02739      4.85005      22.4533
     41 1 0      1.02739      6.76164      23.8048
     42 1 0      2.93881      6.76164      25.1563
     43 1 0      2.93881      4.85744      26.5115
     44 1 0      1.02739      4.85976      27.8655
     45 1 0      1.02739      6.76164      29.2626
     46 1 0      2.93881      6.76164       30.656
     47 1 0      2.93881       4.6704      31.8745
     48 1 0      1.02739      4.14393      33.1554
     49 1 0      1.02739      11.2908       2.2844
     50 1 0      2.93881      10.7643      3.56537
     51 1 0      2.93881      8.67306      4.78385
     52 1 0      1.02739      8.67306      6.17727
     53 1 0      1.02739      10.5749      7.57431
     54 1 0      2.93881      10.5773      8.92834
     55 1 0      2.93881      8.67306      10.2835
     56 1 0      1.02739      8.67306       11.635
     57 1 0      1.02739      10.5846      12.9865
     58 1 0      2.93881      10.5846      14.3389
     59 1 0      2.93881      8.67306      15.6913
     60 1 0      1.02739      8.67306      17.0437
     61 1 0      1.02739      10.5845      18.3961
     62 1 0      2.93881      10.5845      19.7485
     63 1 0      2.93881      8.67318      21.1009
     64 1 0      1.02739      8.67323      22.4533
     65 1 0      1.02739      10.5845      23.8068
     66 1 0      2.93881      10.5845      25.1608
     67 1 0      2.93881      8.66584      26.5115
     68 1 0      1.02739      8.66352      27.8655
     69 1 0      1.02739      10.5845       29.171
     70 1 0      2.93881      10.5845      30.5161
     71 1 0      2.93881      8.85288      31.8745
     72 1 0      1.02739      9.37935      33.1554
     73 1 0      1.02739       13.701       2.2844
     74 1 0      2.93881      14.2275      3.56537
     75 1 0      2.93881      12.4959      4.92369
     76 1 0      1.02739      12.4959      6.26881
     77 1 0      1.02739      14.4168      7.57431
     78 1 0      2.93881      14.4145      8.92834
     79 1 0      2.93881      12.4959       10.279
     80 1 0      1.02739      12.4959       11.633
     81 1 0      1.02739      14.4071      12.9865
     82 1 0      2.93881      14.4072      14.3389
     83 1 0      2.93881      12.4959      15.6913
     84 1 0      1.02739      12.4959      17.0437
     85 1 0      1.02739      14.4073      18.3961
     86 1 0      2.93881      14.4073      19.7485
     87 1 0      2.93881      12.4958      21.1009
     88 1 0      1.02739      12.4957      22.4533
     89 1 0      1.02739      14.4073      23.8048
     90 1 0      2.93881      14.4073      25.1563
     91 1 0      2.93881      12.5031      26.5115
     92 1 0      1.02739      12.5054      27.8655
     93 1 0      1.02739      14.4073      29.2626
     94 1 0      2.93881      14.4073       30.656
     95 1 0      2.93881      12.3161      31.8745
     96 1 0      1.02739      11.7896      33.1554
     97 1 0      1.02739      18.9364       2.2844
     98 1 0      2.93881        18.41      3.56537
     99 1 0      2.93881      16.3187      4.78385
    100 1 0      1.02739      16.3187      6.17727
    101 1 0      1.02739      18.2206      7.57431
    102 1 0      2.93881      18.2229      8.92834
    103 1 0      2.93881      16.3187      10.2835
    104 1 0      1.02739      16.3187       11.635
    105 1 0      1.02739      18.2303      12.9865
    106 1 0      2.93881      18.2303      14.3389
    107 1 0      2.93881      16.3187      15.6913
    108 1 0      1.02739      16.3187      17.0437
    109 1 0      1.02739      18.2301      18.3961
    110 1 0      2.93881      18.2301      19.7485
    111 1 0      2.93881      16.3188      21.1009
    112 1 0      1.02739      16.3189      22.4533
    113 1 0      1.02739      18.2301      23.8068
    114 1 0      2.93881      18.2301      25.1608
    115 1 0      2.93881      16.3115      26.5115
    116 1 0      1.02739      16.3092      27.8655
    117 1 0      1.02739      18.2301       29.171
    118 1 0      2.93881      18.2301      30.5161
    119 1 0      2.93881      16.4985      31.8745
    120 1 0      1.02739       17.025      33.1554
    121 1 0      1.02739      21.3467       2.2844
    122 1 0      2.93881      21.8731      3.56537
    123 1 0      2.93881      20.1416      4.92369
    124 1 0      1.02739      20.1416      6.26881
    125 1 0      1.02739      22.0625      7.57431
    126 1 0      2.93881      22.0602      8.92834
    127 1 0      2.93881      20.1416       10.279
    128 1 0      1.02739      20.1416       11.633
    129 1 0      1.02739      22.0528      12.9865
    130 1 0      2.93881      22.0528      14.3389
    131 1 0      2.93881      20.1416      15.6913
    132 1 0      1.02739      20.1416      17.0437
    133 1 0      1.02739       22.053      18.3961
    134 1 0      2.93881       22.053      19.7485
    135 1 0      2.93881      20.1414      21.1009
    136 1 0      1.02739      20.1414      22.4533
    137 1 0      1.02739       22.053      23.8048
    138 1 0      2.93881       22.053      25.1563
    139 1 0      2.93881      20.1488      26.5115
    140 1 0      1.02739      20.1511      27.8655
    141 1 0      1.02739       22.053      29.2626
    142 1 0      2.93881       22.053       30.656
    143 1 0      2.93881      19.9617      31.8745
    144 1 0      1.02739      19.4353      33.1554
    145 1 0      1.02739      26.5821       2.2844
    146 1 0      2.93881      26.0556      3.56537
    147 1 0      2.93881      23.9644      4.78385
    148 1 0      1.02739      23.9644      6.17727
    149 1 0      1.02739      25.8663      7.57431
    150 1 0      2.93881      25.8686      8.92834
    151 1 0      2.93881      23.9644      10.2835
    152 1 0      1.02739      23.9644       11.635
    153 1 0      1.02739       25.876      12.9865
    154 1 0      2.93881      25.8759      14.3389
    155 1 0      2.93881      23.9644      15.6913
    156 1 0      1.02739      23.9644      17.0437
    157 1 0      1.02739      25.8758      18.3961
    158 1 0      2.93881      25.8758      19.7485
    159 1 0      2.93881      23.9645      21.1009
    160 1 0      1.02739      23.9646      22.4533
    161 1 0      1.02739      25.8758      23.8068
    162 1 0      2.93881      25.8758      25.1608
    163 1 0      2.93881      23.9572      26.5115
    164 1 0      1.02739      23.9549      27.8655
    165 1 0      1.02739      25.8758       29.171
    166 1 0      2.93881      25.8758      30.5161
    167 1 0      2.93881      24.1442      31.8745
    168 1 0      1.02739      24.6707      33.1554
    169 1 0      1.02739      28.9923       2.2844
    170 1 0      2.93881      29.5188      3.56537
    171 1 0      2.93881      27.7872      4.92369
    172 1 0      1.02739      27.7872      6.26881
    173 1 0      1.02739      29.7082      7.57431
    174 1 0      2.93881      29.7058      8.92834
    175 1 0      2.93881      27.7872       10.279
    176 1 0      1.02739      27.7872       11.633
    177 1 0      1.02739      29.6985      12.9865
    178 1 0      2.93881      29.6985      14.3389
    179 1 0      2.93881      27.7872      15.6913
    180 1 0      1.02739      27.7872      17.0437
    181 1 0      1.02739      29.6986      18.3961
    182 1 0      2.93881      29.6986      19.7485
    183 1 0      2.93881      27.7871      21.1009
    184 1 0      1.02739       27.787      22.4533
    185 1 0      1.02739      29.6986      23.8048
    186 1 0      2.93881      29.6986      25.1563
    187 1 0      2.93881      27.7944      26.5115
    188 1 0      1.02739      27.7967      27.8655
    189 1 0      1.02739      29.6986      29.2626
    190 1 0      2.93881      29.6986       30.656
    191 1 0      2.93881      27.6074      31.8745
    192 1 0      1.02739      27.0809      33.1554
    193 1 0      1.02739      34.2278       2.2844
    194 1 0      2.93881      33.7013      3.56537
    195 1 0      2.93881        31.61      4.78385
    196 1 0      1.02739        31.61      6.17727
    197 1 0      1.02739      33.5119      7.57431
    198 1 0      2.93881      33.5142      8.92834
    199 1 0      2.93881        31.61      10.2835
    200 1 0      1.02739        31.61       11.635
    201 1 0      1.02739      33.5216      12.9865
    202 1 0      2.93881      33.5216      14.3389
    203 1 0      2.93881        31.61      15.6913
    204 1 0      1.02739        31.61      17.0437
    205 1 0      1.02739      33.5215      18.3961
    206 1 0      2.93881      33.5215      19.7485
    207 1 0      2.93881      31.6102      21.1009
    208 1 0      1.02739      31.6102      22.4533
    209 1 0      1.02739      33.5215      23.8068
    210 1 0      2.93881      33.5215      25.1608
    211 1 0      2.93881      31.6028      26.5115
    212 1 0      1.02739      31.6005      27.8655
    213 1 0      1.02739      33.5215       29.171
    214 1 0      2.93881      33.5215      30.5161
    215 1 0      2.93881      31.7899      31.8745
    216 1 0      1.02739      32.3163      33.1554
    217 1 0      1.02739       36.638       2.2844
    218 1 0      2.93881      37.1645      3.56537
    219 1 0      2.93881      35.4329      4.92369
    220 1 0      1.02739      35.4329      6.26881
    221 1 0      1.02739      37.3538      7.57431
    222 1 0      2.93881      37.3515      8.92834
    223 1 0      2.93881      35.4329       10.279
    224 1 0      1.02739      35.4329       11.633
    225 1 0      1.02739      37.3441      12.9865
    226 1 0      2.93881      37.3442      14.3389
    227 1 0      2.93881      35.4329      15.6913
    228 1 0      1.02739      35.4329      17.0437
    229 1 0      1.02739      37.3443      18.3961
    230 1 0      2.93881      37.3443      19.7485
    231 1 0      2.93881      35.4328      21.1009
    232 1 0      1.02739      35.4327      22.4533
    233 1 0      1.02739      37.3443      23.8048
    234 1 0      2.93881      37.3443      25.1563
    235 1 0      2.93881      35.4401      26.5115
    236 1 0      1.02739      35.4424      27.8655
    237 1 0      1.02739      37.3443      29.2626
    238 1 0      2.93881      37.3443       30.656
    239 1 0      2.93881      35.2531      31.8745
    240 1 0      1.02739      34.7266      33.1554
    241 1 0      1.02739      41.8734       2.2844
    242 1 0      2.93881      41.3469      3.56537
    243 1 0      2.93881      39.2557      4.78385
    244 1 0      1.02739      39.2557      6.17727
    245 1 0      1.02739      41.1576      7.57431
    246 1 0      2.93881      41.1599      8.92834
    247 1 0      2.93881      39.2557      10.2835
    248 1 0      1.02739      39.2557       11.635
    249 1 0      1.02739      41.1673      12.9865
    250 1 0      2.93881      41.1672      14.3389
    251 1 0      2.93881      39.2557      15.6913
    252 1 0      1.02739      39.2557      17.0437
    253 1 0      1.02739      41.1671      18.3961
    254 1 0      2.93881      41.1671      19.7485
    255 1 0      2.93881      39.2558      21.1009
    256 1 0      1.02739      39.2559      22.4533
    257 1 0      1.02739      41.1671      23.8068
    258 1 0      2.93881      41.1671      25.1608
    259 1 0      2.93881      39.2485      26.5115
    260 1 0      1.02739      39.2462      27.8655
    261 1 0      1.02739      41.1671       29.171
    262 1 0      2.93881      41.1671      30.5161
    263 1 0      2.93881      39.4355      31.8745
    264 1 0      1.02739       39.962      33.1554
    265 1 0      1.02739      44.2837       2.2844
    266 1 0      2.93881      44.8101      3.56537
    267 1 0      2.93881      43.0785      4.92369
    268 1 0      1.02739      43.0785      6.26881
    269 1 0      1.02739      44.9995      7.57431
    270 1 0      2.93881      44.9972      8.92834
    271 1 0      2.93881      43.0785       10.279
    272 1 0      1.02739      43.0785       11.633
    273 1 0      1.02739      44.9898      12.9865
    274 1 0      2.93881      44.9898      14.3389
    275 1 0      2.93881      43.0785      15.6913
    276 1 0      1.02739      43.0785      17.0437
    277 1 0      1.02739        44.99      18.3961
    278 1 0      2.93881        44.99      19.7485
    279 1 0      2.93881      43.0784      21.1009
    280 1 0      1.02739      43.0784      22.4533
    281 1 0      1.02739        44.99      23.8048
    282 1 0      2.93881        44.99      25.1563
    283 1 0      2.93881      43.0858      26.5115
    284 1 0      1.02739      43.0881      27.8655
    285 1 0      1.02739        44.99      29.2626
    286 1 0      2.93881        44.99       30.656
    287 1 0      2.93881      42.8987      31.8745
    288 1 0      1.02739      42.3722      33.1554
    289 1 0      1.02739      49.5191       2.2844
    290 1 0      2.93881      48.9926      3.56537
    291 1 0      2.93881      46.9014      4.78385
    292 1 0      1.02739      46.9014      6.17727
    293 1 0      1.02739      48.8033      7.57431
    294 1 0      2.93881      48.8056      8.92834
    295 1 0      2.93881      46.9014      10.2835
    296 1 0      1.02739      46.9014       11.635
    297 1 0      1.02739       48.813      12.9865
    298 1 0      2.93881      48.8129      14.3389
    299 1 0      2.93881      46.9014      15.6913
    300 1 0      1.02739      46.9014      17.0437
    301 1 0      1.02739      48.8128      18.3961
    302 1 0      2.93881      48.8128      19.7485
    303 1 0      2.93881      46.9015      21.1009
    304 1 0      1.02739      46.9015      22.4533
    305 1 0      1.02739      48.8128      23.8068
    306 1 0      2.93881      48.8128      25.1608
    307 1 0      2.93881      46.8942      26.5115
    308 1 0      1.02739      46.8918      27.8655
    309 1 0      1.02739      48.8128       29.171
    310 1 0      2.93881      48.8128      30.5161
    311 1 0      2.93881      47.0812      31.8745
    312 1 0      1.02739      47.6077      33.1554
    313 1 0      1.02739      51.9293       2.2844
    314 1 0      2.93881      52.4558      3.56537
    315 1 0      2.93881      50.7242      4.92369
    316 1 0      1.02739      50.7242      6.26881
    317 1 0      1.02739      52.6451      7.57431
    318 1 0      2.93881      52.6428      8.92834
    319 1 0      2.93881      50.7242       10.279
    320 1 0      1.02739      50.7242       11.633
    321 1 0      1.02739      52.6354      12.9865
    322 1 0      2.93881      52.6355      14.3389
    323 1 0      2.93881      50.7242      15.6913
    324 1 0      1.02739      50.7242      17.0437
    325 1 0      1.02739      52.6356      18.3961
    326 1 0      2.93881      52.6356      19.7485
    327 1 0      2.93881      50.7241      21.1009
    328 1 0      1.02739       50.724      22.4533
    329 1 0      1.02739      52.6356      23.8048
    330 1 0      2.93881      52.6356      25.1563
    331 1 0      2.93881      50.7314      26.5115
    332 1 0      1.02739      50.7337      27.8655
    333 1 0      1.02739      52.6356      29.2626
    334 1 0      2.93881      52.6356       30.656
    335 1 0      2.93881      50.5444      31.8745
    336 1 0      1.02739      50.0179      33.1554
    337 1 0      1.02739      57.1647       2.2844
    338 1 0      2.93881      56.6383      3.56537
    339 1 0      2.93881       54.547      4.78385
    340 1 0      1.02739       54.547      6.17727
    341 1 0      1.02739      56.4489      7.57431
    342 1 0      2.93881      56.4512      8.92834
    343 1 0      2.93881       54.547      10.2835
    344 1 0      1.02739       54.547       11.635
    345 1 0      1.02739      56.4586      12.9865
    346 1 0      2.93881      56.4586      14.3389
    347 1 0      2.93881       54.547      15.6913
    348 1 0      1.02739       54.547      17.0437
    349 1 0      1.02739      56.4584      18.3961
    350 1 0      2.93881      56.4584      19.7485
    351 1 0      2.93881      54.5472      21.1009
    352 1 0      1.02739      54.5472      22.4533
    353 1 0      1.02739      56.4584      23.8068
    354 1 0      2.93881      56.4584      25.1608
    355 1 0      2.93881      54.5398      26.5115
    356 1 0      1.02739      54.5375      27.8655
    357 1 0      1.02739      56.4584       29.171
    358 1 0      2.93881      56.4584      30.5161
    359 1 0      2.93881      54.7269      31.8745
    360 1 0      1.02739      55.2533      33.1554
    361 1 0      1.02739       59.575       2.2844
    362 1 0      2.93881      60.1015      3.56537
    363 1 0      2.93881      58.3699      4.92369
    364 1 0      1.02739      58.3699      6.26881
    365 1 0      1.02739      60.2908      7.57431
    366 1 0      2.93881      60.2885      8.92834
    367 1 0      2.93881      58.3699       10.279
    368 1 0      1.02739      58.3699       11.633
    369 1 0      1.02739      60.2811      12.9865
    370 1 0      2.93881      60.2812      14.3389
    371 1 0      2.93881      58.3699      15.6913
    372 1 0      1.02739      58.3699      17.0437
    373 1 0      1.02739      60.2813      18.3961
    374 1 0      2.93881      60.2813      19.7485
    375 1 0      2.93881      58.3697      21.1009
    376 1 0      1.02739      58.3697      22.4533
    377 1 0      1.02739      60.2813      23.8048
    378 1 0      2.93881      60.2813      25.1563
    379 1 0      2.93881      58.3771      26.5115
    380 1 0      1.02739      58.3794      27.8655
    381 1 0      1.02739      60.2813      29.2626
    382 1 0      2.93881      60.2813       30.656
    383 1 0      2.93881        58.19      31.8745
    384 1 0      1.02739      57.6636      33.1554
    385 1 0      1.02739      64.8104       2.2844
    386 1 0      2.93881      64.2839      3.56537
    387 1 0      2.93881      62.1927      4.78385
    388 1 0      1.02739      62.1927      6.17727
    389 1 0      1.02739      64.0946      7.57431
    390 1 0      2.93881      64.0969      8.92834
    391 1 0      2.93881      62.1927      10.2835
    392 1 0      1.02739      62.1927       11.635
    393 1 0      1.02739      64.1043      12.9865
    394 1 0      2.93881      64.1042      14.3389
    395 1 0      2.93881      62.1927      15.6913
    396 1 0      1.02739      62.1927      17.0437
    397 1 0      1.02739      64.1041      18.3961
    398 1 0      2.93881      64.1041      19.7485
    399 1 0      2.93881      62.1928      21.1009
    400 1 0      1.02739      62.1929      22.4533
    401 1 0      1.02739      64.1041      23.8068
    402 1 0      2.93881      64.1041      25.1608
    403 1 0      2.93881      62.1855      26.5115
    404 1 0      1.02739      62.1832      27.8655
    405 1 0      1.02739      64.1041       29.171
    406 1 0      2.93881      64.1041      30.5161
    407 1 0      2.93881      62.3725      31.8745
    408 1 0      1.02739       62.899      33.1554
    409 1 0      1.02739      67.2207       2.2844
    410 1 0      2.93881      67.7471      3.56537
    411 1 0      2.93881      66.0155      4.92369
    412 1 0      1.02739      66.0155      6.26881
    413 1 0      1.02739      67.9365      7.57431
    414 1 0      2.93881      67.9342      8.92834
    415 1 0      2.93881      66.0155       10.279
    416 1 0      1.02739      66.0155       11.633
    417 1 0      1.02739      67.9268      12.9865
    418 1 0      2.93881      67.9268      14.3389
    419 1 0      2.93881      66.0155      15.6913
    420 1 0      1.02739      66.0155      17.0437
    421 1 0      1.02739      67.9269      18.3961
    422 1 0      2.93881      67.9269      19.7485
    423 1 0      2.93881      66.0154      21.1009
    424 1 0      1.02739      66.0154      22.4533
    425 1 0      1.02739      67.9269      23.8048
    426 1 0      2.93881      67.9269      25.1563
    427 1 0      2.93881      66.0227      26.5115
    428 1 0      1.02739      66.0251      27.8655
    429 1 0      1.02739      67.9269      29.2626
    430 1 0      2.93881      67.9269       30.656
    431 1 0      2.93881      65.8357      31.8745
    432 1 0      1.02739      65.3092      33.1554
    433 1 0      1.02739      72.4561       2.2844
    434 1 0      2.93881      71.9296      3.56537
    435 1 0      2.93881      69.8384      4.78385
    436 1 0      1.02739      69.8384      6.17727
    437 1 0      1.02739      71.7402      7.57431
    438 1 0      2.93881      71.7426      8.92834
    439 1 0      2.93881      69.8384      10.2835
    440 1 0      1.02739      69.8384       11.635
    441 1 0      1.02739      71.7499      12.9865
    442 1 0      2.93881      71.7499      14.3389
    443 1 0      2.93881      69.8384      15.6913
    444 1 0      1.02739      69.8384      17.0437
    445 1 0      1.02739      71.7498      18.3961
    446 1 0      2.93881      71.7498      19.7485
    447 1 0      2.93881      69.8385      21.1009
    448 1 0      1.02739      69.8385      22.4533
    449 1 0      1.02739      71.7498      23.8068
    450 1 0      2.93881      71.7498      25.1608
    451 1 0      2.93881      69.8311      26.5115
    452 1 0      1.02739      69.8288      27.8655
    453 1 0      1.02739      71.7498       29.171
    454 1 0      2.93881      71.7498      30.5161
    455 1 0      2.93881      70.0182      31.8745
    456 1 0      1.02739      70.5447      33.1554
    457 1 0      1.02739      74.8663       2.2844
    458 1 0      2.93881      75.3928      3.56537
    459 1 0      2.93881      73.6612      4.92369
    460 1 0      1.02739      73.6612      6.26881
    461 1 0      1.02739      75.5821      7.57431
    462 1 0      2.93881      75.5798      8.92834
    463 1 0      2.93881      73.6612       10.279
    464 1 0      1.02739      73.6612       11.633
    465 1 0      1.02739      75.5724      12.9865
    466 1 0      2.93881      75.5725      14.3389
    467 1 0      2.93881      73.6612      15.6913
    468 1 0      1.02739      73.6612      17.0437
    469 1 0      1.02739      75.5726      18.3961
    470 1 0      2.93881      75.5726      19.7485
    471 1 0      2.93881      73.6611      21.1009
    472 1 0      1.02739       73.661      22.4533
    473 1 0      1.02739      75.5726      23.8048
    474 1 0      2.93881      75.5726      25.1563
    475 1 0      2.93881      73.6684      26.5115
    476 1 0      1.02739      73.6707      27.8655
    477 1 0      1.02739      75.5726      29.2626
    478 1 0      2.93881      75.5726       30.656
    479 1 0      2.93881      73.4814      31.8745
    480 1 0      1.02739      72.9549      33.1554
    481 1 0      4.85023       3.6451       2.2844
    482 1 0      6.76164      3.11864      3.56537
    483 1 0      6.76164      1.02739      4.78385
    484 1 0      4.85023      1.02739      6.17727
    485 1 0      4.85023      2.92928      7.57431
    486 1 0      6.76164       2.9316      8.92834
    487 1 0      6.76164      1.02739      10.2835
    488 1 0      4.85023      1.02739       11.635
    489 1 0      4.85023      2.93898      12.9865
    490 1 0      6.76164      2.93893      14.3389
    491 1 0      6.76164      1.02739      15.6913
    492 1 0      4.85023      1.02739      17.0437
    493 1 0      4.85023      2.93881      18.3961
    494 1 0      6.76164      2.93881      19.7485
    495 1 0      6.76164      1.02751      21.1009
    496 1 0      4.85023      1.02757      22.4533
    497 1 0      4.85023      2.93881      23.8068
    498 1 0      6.76164      2.93881      25.1608
    499 1 0      6.76164      1.02018      26.5115
    500 1 0      4.85023      1.01786      27.8655
    501 1 0      4.85023      2.93881       29.171
    502 1 0      6.76164      2.93881      30.5161
    503 1 0      6.76164      1.20722      31.8745
    504 1 0      4.85023      1.73369      33.1554
    505 1 0      4.85023      6.05535       2.2844
    506 1 0      6.76164      6.58182      3.56537
    507 1 0      6.76164      4.85023      4.92369
    508 1 0      4.85023      4.85023      6.26881
    509 1 0      4.85023      6.77117      7.57431
    510 1 0      6.76164      6.76885      8.92834
    511 1 0      6.76164      4.85023       10.279
    512 1 0      4.85023      4.85023       11.633
    513 1 0      4.85023      6.76147      12.9865
    514 1 0      6.76164      6.76152      14.3389
    515 1 0      6.76164      4.85023      15.6913
    516 1 0      4.85023      4.85023      17.0437
    517 1 0      4.85023      6.76164      18.3961
    518 1 0      6.76164      6.76164      19.7485
    519 1 0      6.76164      4.85011      21.1009
    520 1 0      4.85023      4.85005      22.4533
    521 1 0      4.85023      6.76164      23.8048
    522 1 0      6.76164      6.76164      25.1563
    523 1 0      6.76164      4.85744      26.5115
    524 1 0      4.85023      4.85976      27.8655
    525 1 0      4.85023      6.76164      29.2626
    526 1 0      6.76164      6.76164       30.656
    527 1 0      6.76164       4.6704      31.8745
    528 1 0      4.85023      4.14393      33.1554
    529 1 0      4.85023      11.2908       2.2844
    530 1 0      6.76164      10.7643      3.56537
    531 1 0      6.76164      8.67306      4.78385
    532 1 0      4.85023      8.67306      6.17727
    533 1 0      4.85023      10.5749      7.57431
    534 1 0      6.76164      10.5773      8.92834
    535 1 0      6.76164      8.67306      10.2835
    536 1 0      4.85023      8.67306       11.635
    537 1 0      4.85023      10.5846      12.9865
    538 1 0      6.76164      10.5846      14.3389
    539 1 0      6.76164      8.67306      15.6913
    540 1 0      4.85023      8.67306      17.0437
    541 1 0      4.85023      10.5845      18.3961
    542 1 0      6.76164      10.5845      19.7485
    543 1 0      6.76164      8.67318      21.1009
    544 1 0      4.85023      8.67323      22.4533
    545 1 0      4.85023      10.5845      23.8068
    546 1 0      6.76164      10.5845      25.1608
    547 1 0      6.76164      8.66584      26.5115
    548 1 0      4.85023      8.66352      27.8655
    549 1 0      4.85023      10.5845       29.171
    550 1 0      6.76164      10.5845      30.5161
    551 1 0      6.76164      8.85288      31.8745
    552 1 0      4.85023      9.37935      33.1554
    553 1 0      4.85023       13.701       2.2844
    554 1 0      6.76164      14.2275      3.56537
    555 1 0      6.76164      12.4959      4.92369
    556 1 0      4.85023      12.4959      6.26881
    557 1 0      4.85023      14.4168      7.57431
    558 1 0      6.76164      14.4145      8.92834
    559 1 0      6.76164      12.4959       10.279
    560 1 0      4.85023      12.4959       11.633
    561 1 0      4.85023      14.4071      12.9865
    562 1 0      6.76164      14.4072      14.3389
    563 1 0      6.76164      12.4959      15.6913
    564 1 0      4.85023      12.4959      17.0437
    565 1 0      4.85023      14.4073      18.3961
    566 1 0      6.76164      14.4073      19.7485
    567 1 0      6.76164      12.4958      21.1009
    568 1 0      4.85023      12.4957      22.4533
    569 1 0      4.85023      14.4073      23.8048
    570 1 0      6.76164      14.4073      25.1563
    571 1 0      6.76164      12.5031      26.5115
    572 1 0      4.85023      12.5054      27.8655
    573 1 0      4.85023      14.4073      29.2626
    574 1 0      6.76164      14.4073       30.656
    575 1 0      6.76164      12.3161      31.8745
    576 1 0      4.85023      11.7896      33.1554
    577 1 0      4.85023      18.9364       2.2844
    578 1 0      6.76164        18.41      3.56537
    579 1 0      6.76164      16.3187      4.78385
    580 1 0      4.85023      16.3187      6.17727
    581 1 0      4.85023      18.2206      7.57431
    582 1 0      6.76164      18.2229      8.92834
    583 1 0      6.76164      16.3187      10.2835
    584 1 0      4.85023      16.3187       11.635
    585 1 0      4.85023      18.2303      12.9865