# LAMMPS data file written by Ovito Basic 3.0.0-dev791
272 atoms
2 atom types
0.0 2.840051651 xlo xhi
0.0 11.7098331451 ylo yhi
0.0 93.6786651611 zlo zhi

Atoms  # charge

1 1 0.0 0.0 0.0 46.839328766
2 1 0.0 0.0 0.0 58.549160004
3 1 0.0 0.0 0.0 70.259002686
4 1 0.0 0.0 0.0 81.968826294
5 1 0.0 0.0 2.755254507 47.528141022
6 1 0.0 0.0 2.755254507 59.237976074
7 1 0.0 0.0 2.755254507 70.947807312
8 1 0.0 0.0 2.755254507 82.65763855
9 1 0.0 0.0 2.066440105 50.28339386
10 1 0.0 0.0 2.066440105 61.993232727
11 1 0.0 0.0 2.066440105 73.703063965
12 1 0.0 0.0 2.066440105 85.412895203
13 1 0.0 0.0 1.377627254 53.038650513
14 1 0.0 0.0 1.377627254 64.74848175
15 1 0.0 0.0 1.377627254 76.458320618
16 1 0.0 0.0 1.377627254 88.168159485
17 1 0.0 0.0 0.688812912 55.793903351
18 1 0.0 0.0 0.688812912 67.503730774
19 1 0.0 0.0 0.688812912 79.213569641
20 1 0.0 0.0 0.688812912 90.923416138
21 1 0.0 0.0 11.021019936 49.594585419
22 1 0.0 0.0 11.021019936 61.304416656
23 1 0.0 0.0 11.021019936 73.014259338
24 1 0.0 0.0 11.021019936 84.724082947
25 1 0.0 0.0 10.332204819 52.349838257
26 1 0.0 0.0 10.332204819 64.059669495
27 1 0.0 0.0 10.332204819 75.769500732
28 1 0.0 0.0 10.332204819 87.4793396
29 1 0.0 0.0 9.643390656 55.10509491
30 1 0.0 0.0 9.643390656 66.814926147
31 1 0.0 0.0 9.643390656 78.524757385
32 1 0.0 0.0 9.643390656 90.234596252
33 1 0.0 0.0 8.954577446 57.860343933
34 1 0.0 0.0 8.954577446 69.570175171
35 1 0.0 0.0 8.954577446 81.280006409
36 1 0.0 0.0 8.954577446 92.989845276
37 1 0.0 0.0 8.265763283 48.905769348
38 1 0.0 0.0 8.265763283 60.615604401
39 1 0.0 0.0 8.265763283 72.325439453
40 1 0.0 0.0 8.265763283 84.035263062
41 1 0.0 0.0 7.576949596 51.661022186
42 1 0.0 0.0 7.576949596 63.370861053
43 1 0.0 0.0 7.576949596 75.080688477
44 1 0.0 0.0 7.576949596 86.790519714
45 1 0.0 0.0 6.88813591 54.416278839
46 1 0.0 0.0 6.88813591 66.126121521
47 1 0.0 0.0 6.88813591 77.835945129
48 1 0.0 0.0 6.88813591 89.545776367
49 1 0.0 0.0 6.199322224 57.171531677
50 1 0.0 0.0 6.199322224 68.881362915
51 1 0.0 0.0 6.199322224 80.591194153
52 1 0.0 0.0 6.199322224 92.301025391
53 1 0.0 0.0 5.510509014 48.216957092
54 1 0.0 0.0 5.510509014 59.92678833
55 1 0.0 0.0 5.510509014 71.636619568
56 1 0.0 0.0 5.510509014 83.346458435
57 1 0.0 0.0 4.821695328 50.972206116
58 1 0.0 0.0 4.821695328 62.682044983
59 1 0.0 0.0 4.821695328 74.391876221
60 1 0.0 0.0 4.821695328 86.101707458
61 1 0.0 0.0 4.132881641 53.727466583
62 1 0.0 0.0 4.132881641 65.437301636
63 1 0.0 0.0 4.132881641 77.147140503
64 1 0.0 0.0 4.132881641 88.85697937
65 1 0.0 0.0 3.44406724 56.482715607
66 1 0.0 0.0 3.44406724 68.192550659
67 1 0.0 0.0 3.44406724 79.902389526
68 1 0.0 0.0 3.44406724 91.612213135
69 1 0.0 1.420025706 9.987797737 47.87254715
70 1 0.0 1.420025706 9.987797737 59.582382202
71 1 0.0 1.420025706 9.987797737 71.29221344
72 1 0.0 1.420025706 9.987797737 83.002044678
73 1 0.0 1.420025706 1.033220053 48.56136322
74 1 0.0 1.420025706 1.033220053 60.271194458
75 1 0.0 1.420025706 1.033220053 71.981018066
76 1 0.0 1.420025706 1.033220053 83.690856934
77 1 0.0 1.420025706 0.34440577 51.316616058
78 1 0.0 1.420025706 0.34440577 63.026447296
79 1 0.0 1.420025706 0.34440577 74.736289978
80 1 0.0 1.420025706 0.34440577 86.446113586
81 1 0.0 1.420025706 11.36542511 54.071872711
82 1 0.0 1.420025706 11.36542511 65.781700134
83 1 0.0 1.420025706 11.36542511 77.491539001
84 1 0.0 1.420025706 11.36542511 89.201370239
85 1 0.0 1.420025706 10.6766119 56.827125549
86 1 0.0 1.420025706 10.6766119 68.536972046
87 1 0.0 1.420025706 10.6766119 80.246795654
88 1 0.0 1.420025706 10.6766119 91.956626892
89 1 0.0 1.420025706 9.298983574 50.627799988
90 1 0.0 1.420025706 9.298983574 62.33763504
91 1 0.0 1.420025706 9.298983574 74.047470093
92 1 0.0 1.420025706 9.298983574 85.75730896
93 1 0.0 1.420025706 8.610170364 53.383056641
94 1 0.0 1.420025706 8.610170364 65.092887878
95 1 0.0 1.420025706 8.610170364 76.802719116
96 1 0.0 1.420025706 8.610170364 88.512557983
97 1 0.0 1.420025706 7.921356678 56.138317108
98 1 0.0 1.420025706 7.921356678 67.848152161
99 1 0.0 1.420025706 7.921356678 79.557991028
100 1 0.0 1.420025706 7.921356678 91.267814636
101 1 0.0 1.420025706 7.232542992 47.183734894
102 1 0.0 1.420025706 7.232542992 58.893566132
103 1 0.0 1.420025706 7.232542992 70.603401184
104 1 0.0 1.420025706 7.232542992 82.313232422
105 1 0.0 1.420025706 6.543729782 49.938987732
106 1 0.0 1.420025706 6.543729782 61.64881897
107 1 0.0 1.420025706 6.543729782 73.358650208
108 1 0.0 1.420025706 6.543729782 85.068489075
109 1 0.0 1.420025706 5.854916096 52.694244385
110 1 0.0 1.420025706 5.854916096 64.404075623
111 1 0.0 1.420025706 5.854916096 76.11390686
112 1 0.0 1.420025706 5.854916096 87.823738098
113 1 0.0 1.420025706 5.166102409 55.449501038
114 1 0.0 1.420025706 5.166102409 67.159332275
115 1 0.0 1.420025706 5.166102409 78.869171143
116 1 0.0 1.420025706 5.166102409 90.578994751
117 1 0.0 1.420025706 4.477288723 58.204753876
118 1 0.0 1.420025706 4.477288723 69.914588928
119 1 0.0 1.420025706 4.477288723 81.624427795
120 1 0.0 1.420025706 4.477288723 93.334251404
121 1 0.0 1.420025706 3.78847456 49.250175476
122 1 0.0 1.420025706 3.78847456 60.960006714
123 1 0.0 1.420025706 3.78847456 72.669837952
124 1 0.0 1.420025706 3.78847456 84.379669189
125 1 0.0 1.420025706 3.099660873 52.005428314
126 1 0.0 1.420025706 3.099660873 63.715263367
127 1 0.0 1.420025706 3.099660873 75.425094604
128 1 0.0 1.420025706 3.099660873 87.134925842
129 1 0.0 1.420025706 2.410847425 54.760684967
130 1 0.0 1.420025706 2.410847425 66.47052002
131 1 0.0 1.420025706 2.410847425 78.180351257
132 1 0.0 1.420025706 2.410847425 89.890182495
133 1 0.0 1.420025706 1.72203362 57.515937805
134 1 0.0 1.420025706 1.72203362 69.225769043
135 1 0.0 1.420025706 1.72203362 80.93560791
136 1 0.0 1.420025706 1.72203362 92.645446777
137 2 0.0 0.0 0.0 0.0
138 2 0.0 0.0 0.0 11.709832191
139 2 0.0 0.0 0.0 23.419664383
140 2 0.0 0.0 0.0 35.129501343
141 2 0.0 0.0 8.954577446 0.688813746
142 2 0.0 0.0 8.954577446 12.398646355
143 2 0.0 0.0 8.954577446 24.108478546
144 2 0.0 0.0 8.954577446 35.818309784
145 2 0.0 0.0 9.643392563 3.444068432
146 2 0.0 0.0 9.643392563 15.1539011
147 2 0.0 0.0 9.643392563 26.863733292
148 2 0.0 0.0 9.643392563 38.573570251
149 2 0.0 0.0 10.332204819 6.199323177
150 2 0.0 0.0 10.332204819 17.909154892
151 2 0.0 0.0 10.332204819 29.618988037
152 2 0.0 0.0 10.332204819 41.328819275
153 2 0.0 0.0 11.021019936 8.954577446
154 2 0.0 0.0 11.021019936 20.664409637
155 2 0.0 0.0 11.021019936 32.374240875
156 2 0.0 0.0 11.021019936 44.084079742
157 2 0.0 0.0 0.688813746 2.755254984
158 2 0.0 0.0 0.688813746 14.465085983
159 2 0.0 0.0 0.688813746 26.174919128
160 2 0.0 0.0 0.688813746 37.884750366
161 2 0.0 0.0 1.377627492 5.510509968
162 2 0.0 0.0 1.377627492 17.220340729
163 2 0.0 0.0 1.377627492 28.930171967
164 2 0.0 0.0 1.377627492 40.640003204
165 2 0.0 0.0 2.066441298 8.26576519
166 2 0.0 0.0 2.066441298 19.975597382
167 2 0.0 0.0 2.066441298 31.685430527
168 2 0.0 0.0 2.066441298 43.395263672
169 2 0.0 0.0 2.755254984 11.021019936
170 2 0.0 0.0 2.755254984 22.730854034
171 2 0.0 0.0 2.755254984 34.440681458
172 2 0.0 0.0 2.755254984 46.150512695
173 2 0.0 0.0 3.444068432 2.066441298
174 2 0.0 0.0 3.444068432 13.776273727
175 2 0.0 0.0 3.444068432 25.486103058
176 2 0.0 0.0 3.444068432 37.195934296
177 2 0.0 0.0 4.132882595 4.821696281
178 2 0.0 0.0 4.132882595 16.53153038
179 2 0.0 0.0 4.132882595 28.241357803
180 2 0.0 0.0 4.132882595 39.951190948
181 2 0.0 0.0 4.821696281 7.57695055
182 2 0.0 0.0 4.821696281 19.286785126
183 2 0.0 0.0 4.821696281 30.996616364
184 2 0.0 0.0 4.821696281 42.706447601
185 2 0.0 0.0 5.510509968 10.332204819
186 2 0.0 0.0 5.510509968 22.042039871
187 2 0.0 0.0 5.510509968 33.751865387
188 2 0.0 0.0 5.510509968 45.461700439
189 2 0.0 0.0 6.199323177 1.377627492
190 2 0.0 0.0 6.199323177 13.087459564
191 2 0.0 0.0 6.199323177 24.797292709
192 2 0.0 0.0 6.199323177 36.507129669
193 2 0.0 0.0 6.888136864 4.132882595
194 2 0.0 0.0 6.888136864 15.842715263
195 2 0.0 0.0 6.888136864 27.552547455
196 2 0.0 0.0 6.888136864 39.262378693
197 2 0.0 0.0 7.57695055 6.888136864
198 2 0.0 0.0 7.57695055 18.597969055
199 2 0.0 0.0 7.57695055 30.3078022
200 2 0.0 0.0 7.57695055 42.01763916
201 2 0.0 0.0 8.26576519 9.643392563
202 2 0.0 0.0 8.26576519 21.353223801
203 2 0.0 0.0 8.26576519 33.06306076
204 2 0.0 0.0 8.26576519 44.772888184
205 2 0.0 1.420025706 1.722034216 1.033220649
206 2 0.0 1.420025706 1.722034216 12.743051529
207 2 0.0 1.420025706 1.722034216 24.452884674
208 2 0.0 1.420025706 1.722034216 36.162719727
209 2 0.0 1.420025706 10.6766119 1.722034216
210 2 0.0 1.420025706 10.6766119 13.431866646
211 2 0.0 1.420025706 10.6766119 25.14169693
212 2 0.0 1.420025706 10.6766119 36.851528168
213 2 0.0 1.420025706 11.365427017 4.477288723
214 2 0.0 1.420025706 11.365427017 16.187120438
215 2 0.0 1.420025706 11.365427017 27.896951675
216 2 0.0 1.420025706 11.365427017 39.606784821
217 2 0.0 1.420025706 0.344407141 7.232543945
218 2 0.0 1.420025706 0.344407141 18.94237709
219 2 0.0 1.420025706 0.344407141 30.652208328
220 2 0.0 1.420025706 0.344407141 42.362041473
221 2 0.0 1.420025706 1.033220053 9.987798691
222 2 0.0 1.420025706 1.033220053 21.697631836
223 2 0.0 1.420025706 1.033220053 33.407463074
224 2 0.0 1.420025706 1.033220053 45.117298126
225 2 0.0 1.420025706 2.410848141 3.788475275
226 2 0.0 1.420025706 2.410848141 15.498308182
227 2 0.0 1.420025706 2.410848141 27.20813942
228 2 0.0 1.420025706 2.410848141 38.917972565
229 2 0.0 1.420025706 3.099661589 6.543729782
230 2 0.0 1.420025706 3.099661589 18.253564835
231 2 0.0 1.420025706 3.099661589 29.963394165
232 2 0.0 1.420025706 3.099661589 41.673229218
233 2 0.0 1.420025706 3.788475275 9.298984528
234 2 0.0 1.420025706 3.788475275 21.00881958
235 2 0.0 1.420025706 3.788475275 32.718650818
236 2 0.0 1.420025706 3.788475275 44.428482056
237 2 0.0 1.420025706 4.477288723 0.344407141
238 2 0.0 1.420025706 4.477288723 12.054239273
239 2 0.0 1.420025706 4.477288723 23.764070511
240 2 0.0 1.420025706 4.477288723 35.473903656
241 2 0.0 1.420025706 5.166102409 3.099661589
242 2 0.0 1.420025706 5.166102409 14.809494019
243 2 0.0 1.420025706 5.166102409 26.519325256
244 2 0.0 1.420025706 5.166102409 38.229160309
245 2 0.0 1.420025706 5.854916096 5.854916096
246 2 0.0 1.420025706 5.854916096 17.564750671
247 2 0.0 1.420025706 5.854916096 29.274580002
248 2 0.0 1.420025706 5.854916096 40.984413147
249 2 0.0 1.420025706 6.543729782 8.610171318
250 2 0.0 1.420025706 6.543729782 20.320001602
251 2 0.0 1.420025706 6.543729782 32.029834747
252 2 0.0 1.420025706 6.543729782 43.7396698
253 2 0.0 1.420025706 7.232542992 11.365427017
254 2 0.0 1.420025706 7.232542992 23.075258255
255 2 0.0 1.420025706 7.232542992 34.785087585
256 2 0.0 1.420025706 7.232542992 46.494922638
257 2 0.0 1.420025706 7.921357632 2.410848141
258 2 0.0 1.420025706 7.921357632 14.120678902
259 2 0.0 1.420025706 7.921357632 25.830511093
260 2 0.0 1.420025706 7.921357632 37.540344238
261 2 0.0 1.420025706 8.610171318 5.166102409
262 2 0.0 1.420025706 8.610171318 16.875932693
263 2 0.0 1.420025706 8.610171318 28.585765839
264 2 0.0 1.420025706 8.610171318 40.295597076
265 2 0.0 1.420025706 9.298984528 7.921357632
266 2 0.0 1.420025706 9.298984528 19.631189346
267 2 0.0 1.420025706 9.298984528 31.341022491
268 2 0.0 1.420025706 9.298984528 43.050853729
269 2 0.0 1.420025706 9.987798691 10.6766119
270 2 0.0 1.420025706 9.987798691 22.386444092
271 2 0.0 1.420025706 9.987798691 34.09627533
272 2 0.0 1.420025706 9.987798691 45.806106567
