# LAMMPS data file written by Ovito 3.0.0-dev419
10 atoms
4 atom types
0.0 20.0 xlo xhi
0.0 20.0 ylo yhi
0.0 20.0 zlo zhi

Atoms # charge

1 1 0.0 11.702999115 11.244874954 9.264192581
2 1 0.0 9.684737206 12.237522125 9.604249954
3 2 0.0 8.368461609 10.131354332 10.121945381
4 3 0.0 10.532922745 11.175878525 9.602899551
5 3 0.0 9.839948654 9.913235664 10.110761642
6 4 0.0 8.820029259 11.887796402 9.936696053
7 4 0.0 10.081878662 9.071573257 9.45663929
8 4 0.0 10.185456276 9.71927166 11.129827499
9 4 0.0 8.025208473 9.983817101 9.166017532
10 4 0.0 7.948154449 9.365153313 10.656246185
