# LAMMPS data file written by Ovito Basic 3.0.0-dev791
46 atoms
5 atom types
0.0 5.1184120178 xlo xhi
0.0 7.2157158852 ylo yhi
0.0 41.743019104 zlo zhi

Atoms  # charge

1 1 0.0 1.279603004 1.803928971 21.743021011
2 1 0.0 1.279603004 5.411787033 21.743021011
3 1 0.0 3.838809013 1.803928971 21.743021011
4 1 0.0 3.838809013 5.411787033 21.743021011
5 1 0.0 0.0 0.0 17.920158386
6 1 0.0 0.0 3.607857943 17.920158386
7 1 0.0 2.559206009 0.0 17.920158386
8 1 0.0 2.559206009 3.607857943 17.920158386
9 1 0.0 0.0 0.0 20.435857773
10 1 0.0 0.0 3.607857943 20.435857773
11 1 0.0 2.559206009 0.0 20.435857773
12 1 0.0 2.559206009 3.607857943 20.435857773
13 1 0.0 1.279603004 1.803928971 19.263801575
14 1 0.0 1.279603004 5.411787033 19.263801575
15 1 0.0 3.838809013 1.803928971 19.263801575
16 1 0.0 3.838809013 5.411787033 19.263801575
17 1 0.0 1.279603004 1.803928971 16.648622513
18 1 0.0 1.279603004 5.411787033 16.648622513
19 1 0.0 3.838809013 1.803928971 16.648622513
20 1 0.0 3.838809013 5.411787033 16.648622513
21 1 0.0 0.0 0.0 12.726279259
22 1 0.0 0.0 3.607857943 12.726279259
23 1 0.0 2.559206009 0.0 12.726279259
24 1 0.0 2.559206009 3.607857943 12.726279259
25 1 0.0 0.0 0.0 15.341460228
26 1 0.0 0.0 3.607857943 15.341460228
27 1 0.0 2.559206009 0.0 15.341460228
28 1 0.0 2.559206009 3.607857943 15.341460228
29 1 0.0 1.279603004 1.803928971 14.069923401
30 1 0.0 1.279603004 5.411787033 14.069923401
31 1 0.0 3.838809013 1.803928971 14.069923401
32 1 0.0 3.838809013 5.411787033 14.069923401
33 1 0.0 1.279603004 1.803928971 11.554224014
34 1 0.0 1.279603004 5.411787033 11.554224014
35 1 0.0 3.838809013 1.803928971 11.554224014
36 1 0.0 3.838809013 5.411787033 11.554224014
37 2 0.0 2.6128372079 4.2498482031 25.6600485567
38 2 0.0 2.6272058889 2.1635273622 25.5904402478
39 3 0.0 3.0865358132 2.1875702747 28.0919416706
40 4 0.0 2.5815265318 3.2674340716 27.474600403
41 4 0.0 3.1496617256 3.2308327454 26.2101353039
42 5 0.0 4.1174583385 2.3059942341 27.957607653
43 5 0.0 2.6760519108 1.3961985127 27.5607699229
44 5 0.0 3.022123114 4.1205805955 27.9376430335
45 5 0.0 1.5199852072 3.2133601673 27.399183221
46 5 0.0 3.0294330935 4.9749672899 26.148225507
