# LAMMPS data file written by Ovito 3.0.0-dev419
50 atoms
5 atom types
0.0 30.0 xlo xhi
0.0 30.0 ylo yhi
0.0 30.0 zlo zhi

Atoms # charge

1 1 0.0 14.449299812 14.299500465 13.677399635
2 1 0.0 18.370000839 11.54940033 14.80189991
3 2 0.0 14.565999985 18.157400131 16.2689991
4 2 0.0 9.800800323 13.971300125 14.265399933
5 2 0.0 11.418899536 17.746999741 16.295900345
6 2 0.0 11.68999958 15.979998589 17.722200394
7 2 0.0 17.900699615 16.659099579 12.645500183
8 2 0.0 20.955299377 15.197800636 15.207501411
9 2 0.0 8.189499855 12.955900192 15.572999954
10 2 0.0 13.2725830895 20.2607656899 14.7250112769
11 3 0.0 13.581800461 16.438400269 14.989500046
12 3 0.0 16.618299484 16.275400162 14.573800087
13 3 0.0 20.020000458 16.053300858 14.608699799
14 3 0.0 18.91340065 13.694899559 16.137599945
15 3 0.0 18.836099625 11.706899643 17.415300369
16 4 0.0 14.185299873 16.086999893 13.717000008
17 4 0.0 15.388199806 16.948999405 14.158800125
18 4 0.0 14.482899666 17.378400803 15.348399162
19 4 0.0 12.451199532 15.862600327 15.473300934
20 4 0.0 11.961400032 14.714699745 14.947400093
21 4 0.0 12.672800064 13.921099663 13.853699684
22 4 0.0 10.670200348 14.058600426 15.374500275
23 4 0.0 11.819600105 16.505899429 16.635099411
24 4 0.0 17.741100311 16.205799103 13.767399788
25 4 0.0 18.881900787 15.459600449 14.409500122
26 4 0.0 18.743299484 14.05739975 14.815600395
27 4 0.0 8.578700066 13.393600464 14.498700142
28 4 0.0 18.444000244 13.032099724 13.943200111
29 4 0.0 7.767000675 13.369700432 13.239100456
30 4 0.0 18.740100861 12.396400452 16.247600555
31 4 0.0 22.162399292 15.921899796 15.388299942
32 5 0.0 13.638999939 16.494300842 12.857999802
33 5 0.0 15.590799332 17.788200378 13.481599808
34 5 0.0 12.179499626 14.097399712 12.891599655
35 5 0.0 12.609800339 12.849599838 14.071100235
36 5 0.0 16.664199829 15.836600304 15.490699768
37 5 0.0 10.886599541 13.054100037 15.758898735
38 5 0.0 10.16590023 14.617799759 16.168300629
39 5 0.0 10.990300179 18.214099884 17.044500351
40 5 0.0 18.269899368 13.076199532 12.877200127
41 5 0.0 7.596699715 14.390999794 12.8895998
42 5 0.0 6.798500061 12.903100014 13.439900398
43 5 0.0 8.285200119 12.782999992 12.476499557
44 5 0.0 22.896499634 15.260001183 15.855298996
45 5 0.0 21.99600029 16.781200409 16.04529953
46 5 0.0 22.55439949 16.255800247 14.422499657
47 5 0.0 18.694999695 10.702899933 17.456300735
48 5 0.0 19.05340004 12.168700218 18.292200089
49 5 0.0 13.928025882 20.1007701812 15.4302565723
50 5 0.0 12.5595072947 19.6532554366 14.9998795869
