# LAMMPS data file written by Ovito Basic 3.0.0-dev791
544 atoms
2 atom types
0.0 3.5057981014 xlo xhi
0.0 14.4547758102 ylo yhi
0.0 115.6382064819 zlo zhi

Atoms  # charge

1 1 0.0 0.0 0.0 57.819099426
2 1 0.0 0.0 0.0 72.273872375
3 1 0.0 0.0 0.0 86.728645325
4 1 0.0 0.0 0.0 101.183425903
5 1 0.0 0.0 3.401122332 58.669376373
6 1 0.0 0.0 3.401122332 73.124153137
7 1 0.0 0.0 3.401122332 87.578926086
8 1 0.0 0.0 3.401122332 102.033706665
9 1 0.0 0.0 2.550842285 62.07049942
10 1 0.0 0.0 2.550842285 76.525291443
11 1 0.0 0.0 2.550842285 90.980056763
12 1 0.0 0.0 2.550842285 105.434829712
13 1 0.0 0.0 1.700561643 65.471626282
14 1 0.0 0.0 1.700561643 79.926399231
15 1 0.0 0.0 1.700561643 94.381187439
16 1 0.0 0.0 1.700561643 108.835952759
17 1 0.0 0.0 0.850280821 68.872749329
18 1 0.0 0.0 0.850280821 83.327522278
19 1 0.0 0.0 0.850280821 97.782295227
20 1 0.0 0.0 0.850280821 112.237068176
21 1 0.0 0.0 13.604494095 61.220222473
22 1 0.0 0.0 13.604494095 75.674995422
23 1 0.0 0.0 13.604494095 90.129776001
24 1 0.0 0.0 13.604494095 104.58454895
25 1 0.0 0.0 12.754213333 64.62134552
26 1 0.0 0.0 12.754213333 79.076118469
27 1 0.0 0.0 12.754213333 93.530891418
28 1 0.0 0.0 12.754213333 107.985664368
29 1 0.0 0.0 11.903932571 68.022468567
30 1 0.0 0.0 11.903932571 82.477241516
31 1 0.0 0.0 11.903932571 96.932014465
32 1 0.0 0.0 11.903932571 111.386787415
33 1 0.0 0.0 11.053652763 71.423591614
34 1 0.0 0.0 11.053652763 85.878364563
35 1 0.0 0.0 11.053652763 100.333137512
36 1 0.0 0.0 11.053652763 114.787918091
37 1 0.0 0.0 10.203369141 60.369941711
38 1 0.0 0.0 10.203369141 74.824714661
39 1 0.0 0.0 10.203369141 89.279495239
40 1 0.0 0.0 10.203369141 103.734268188
41 1 0.0 0.0 9.353089333 63.771060944
42 1 0.0 0.0 9.353089333 78.225837708
43 1 0.0 0.0 9.353089333 92.680603027
44 1 0.0 0.0 9.353089333 107.135391235
45 1 0.0 0.0 8.502807617 67.172187805
46 1 0.0 0.0 8.502807617 81.626960754
47 1 0.0 0.0 8.502807617 96.081748962
48 1 0.0 0.0 8.502807617 110.536514282
49 1 0.0 0.0 7.652527809 70.573310852
50 1 0.0 0.0 7.652527809 85.028083801
51 1 0.0 0.0 7.652527809 99.48285675
52 1 0.0 0.0 7.652527809 113.937637329
53 1 0.0 0.0 6.802246571 59.51966095
54 1 0.0 0.0 6.802246571 73.974433899
55 1 0.0 0.0 6.802246571 88.429222107
56 1 0.0 0.0 6.802246571 102.883987427
57 1 0.0 0.0 5.951965809 62.920780182
58 1 0.0 0.0 5.951965809 77.375556946
59 1 0.0 0.0 5.951965809 91.830337524
60 1 0.0 0.0 5.951965809 106.285110474
61 1 0.0 0.0 5.10168457 66.321907043
62 1 0.0 0.0 5.10168457 80.776679993
63 1 0.0 0.0 5.10168457 95.231460571
64 1 0.0 0.0 5.10168457 109.686233521
65 1 0.0 0.0 4.251403809 69.723022461
66 1 0.0 0.0 4.251403809 84.17780304
67 1 0.0 0.0 4.251403809 98.632575989
68 1 0.0 0.0 4.251403809 113.087356567
69 1 0.0 0.0 12.329071999 59.094520569
70 1 0.0 0.0 12.329071999 73.549293518
71 1 0.0 0.0 12.329071999 88.004074097
72 1 0.0 0.0 12.329071999 102.458847046
73 1 0.0 0.0 1.275420785 59.944801331
74 1 0.0 0.0 1.275420785 74.39957428
75 1 0.0 0.0 1.275420785 88.854347229
76 1 0.0 0.0 1.275420785 103.309120178
77 1 0.0 0.0 0.425140023 63.345920563
78 1 0.0 0.0 0.425140023 77.800697327
79 1 0.0 0.0 0.425140023 92.255470276
80 1 0.0 0.0 0.425140023 106.710250854
81 1 0.0 0.0 14.029633522 66.747047424
82 1 0.0 0.0 14.029633522 81.201820374
83 1 0.0 0.0 14.029633522 95.656600952
84 1 0.0 0.0 14.029633522 110.111373901
85 1 0.0 0.0 13.179353714 70.148170471
86 1 0.0 0.0 13.179353714 84.60295105
87 1 0.0 0.0 13.179353714 99.057723999
88 1 0.0 0.0 13.179353714 113.512504578
89 1 0.0 0.0 11.478791237 62.495639801
90 1 0.0 0.0 11.478791237 76.950424194
91 1 0.0 0.0 11.478791237 91.405189514
92 1 0.0 0.0 11.478791237 105.859970093
93 1 0.0 0.0 10.628510475 65.896766663
94 1 0.0 0.0 10.628510475 80.351539612
95 1 0.0 0.0 10.628510475 94.80632019
96 1 0.0 0.0 10.628510475 109.26109314
97 1 0.0 0.0 9.778229713 69.297889709
98 1 0.0 0.0 9.778229713 83.752670288
99 1 0.0 0.0 9.778229713 98.207443237
100 1 0.0 0.0 9.778229713 112.662216187
101 1 0.0 0.0 8.927948952 58.244235992
102 1 0.0 0.0 8.927948952 72.699012756
103 1 0.0 0.0 8.927948952 87.153785706
104 1 0.0 0.0 8.927948952 101.608566284
105 1 0.0 0.0 8.07766819 61.645359039
106 1 0.0 0.0 8.07766819 76.100135803
107 1 0.0 0.0 8.07766819 90.554908752
108 1 0.0 0.0 8.07766819 105.009689331
109 1 0.0 0.0 7.227387428 65.046485901
110 1 0.0 0.0 7.227387428 79.50125885
111 1 0.0 0.0 7.227387428 93.956039429
112 1 0.0 0.0 7.227387428 108.410812378
113 1 0.0 0.0 6.377106667 68.447608948
114 1 0.0 0.0 6.377106667 82.902381897
115 1 0.0 0.0 6.377106667 97.357162476
116 1 0.0 0.0 6.377106667 111.811935425
117 1 0.0 0.0 5.526826382 71.848731995
118 1 0.0 0.0 5.526826382 86.303504944
119 1 0.0 0.0 5.526826382 100.758285522
120 1 0.0 0.0 5.526826382 115.213058472
121 1 0.0 0.0 4.676543713 60.795082092
122 1 0.0 0.0 4.676543713 75.249855042
123 1 0.0 0.0 4.676543713 89.704627991
124 1 0.0 0.0 4.676543713 104.15940094
125 1 0.0 0.0 3.826263189 64.196205139
126 1 0.0 0.0 3.826263189 78.650978088
127 1 0.0 0.0 3.826263189 93.105751038
128 1 0.0 0.0 3.826263189 107.560531616
129 1 0.0 0.0 2.975982428 67.597328186
130 1 0.0 0.0 2.975982428 82.052108765
131 1 0.0 0.0 2.975982428 96.506881714
132 1 0.0 0.0 2.975982428 110.961654663
133 1 0.0 0.0 2.125701666 70.998451233
134 1 0.0 0.0 2.125701666 85.453224182
135 1 0.0 0.0 2.125701666 99.908004761
136 1 0.0 0.0 2.125701666 114.36277771
137 1 0.0 1.752898932 14.029633522 59.51966095
138 1 0.0 1.752898932 14.029633522 73.974433899
139 1 0.0 1.752898932 14.029633522 88.429222107
140 1 0.0 1.752898932 14.029633522 102.883987427
141 1 0.0 1.752898932 2.975982428 60.369941711
142 1 0.0 1.752898932 2.975982428 74.824714661
143 1 0.0 1.752898932 2.975982428 89.279495239
144 1 0.0 1.752898932 2.975982428 103.734268188
145 1 0.0 1.752898932 2.125701666 63.771060944
146 1 0.0 1.752898932 2.125701666 78.225837708
147 1 0.0 1.752898932 2.125701666 92.680603027
148 1 0.0 1.752898932 2.125701666 107.135391235
149 1 0.0 1.752898932 1.275420785 67.172187805
150 1 0.0 1.752898932 1.275420785 81.626960754
151 1 0.0 1.752898932 1.275420785 96.081748962
152 1 0.0 1.752898932 1.275420785 110.536514282
153 1 0.0 1.752898932 0.425140023 70.573310852
154 1 0.0 1.752898932 0.425140023 85.028083801
155 1 0.0 1.752898932 0.425140023 99.48285675
156 1 0.0 1.752898932 0.425140023 113.937637329
157 1 0.0 1.752898932 13.17935276 62.920780182
158 1 0.0 1.752898932 13.17935276 77.375556946
159 1 0.0 1.752898932 13.17935276 91.830337524
160 1 0.0 1.752898932 13.17935276 106.285110474
161 1 0.0 1.752898932 12.329071999 66.321907043
162 1 0.0 1.752898932 12.329071999 80.776679993
163 1 0.0 1.752898932 12.329071999 95.231460571
164 1 0.0 1.752898932 12.329071999 109.686233521
165 1 0.0 1.752898932 11.478791237 69.723022461
166 1 0.0 1.752898932 11.478791237 84.17780304
167 1 0.0 1.752898932 11.478791237 98.632575989
168 1 0.0 1.752898932 11.478791237 113.087356567
169 1 0.0 1.752898932 10.628510475 58.669376373
170 1 0.0 1.752898932 10.628510475 73.124153137
171 1 0.0 1.752898932 10.628510475 87.578926086
172 1 0.0 1.752898932 10.628510475 102.033706665
173 1 0.0 1.752898932 9.778229713 62.07049942
174 1 0.0 1.752898932 9.778229713 76.525291443
175 1 0.0 1.752898932 9.778229713 90.980056763
176 1 0.0 1.752898932 9.778229713 105.434829712
177 1 0.0 1.752898932 8.927948952 65.471626282
178 1 0.0 1.752898932 8.927948952 79.926399231
179 1 0.0 1.752898932 8.927948952 94.381187439
180 1 0.0 1.752898932 8.927948952 108.835952759
181 1 0.0 1.752898932 8.07766819 68.872749329
182 1 0.0 1.752898932 8.07766819 83.327522278
183 1 0.0 1.752898932 8.07766819 97.782295227
184 1 0.0 1.752898932 8.07766819 112.237068176
185 1 0.0 1.752898932 7.227387428 57.819099426
186 1 0.0 1.752898932 7.227387428 72.273872375
187 1 0.0 1.752898932 7.227387428 86.728645325
188 1 0.0 1.752898932 7.227387428 101.183425903
189 1 0.0 1.752898932 6.377104759 61.220222473
190 1 0.0 1.752898932 6.377104759 75.674995422
191 1 0.0 1.752898932 6.377104759 90.129776001
192 1 0.0 1.752898932 6.377104759 104.58454895
193 1 0.0 1.752898932 5.526824951 64.62134552
194 1 0.0 1.752898932 5.526824951 79.076118469
195 1 0.0 1.752898932 5.526824951 93.530891418
196 1 0.0 1.752898932 5.526824951 107.985664368
197 1 0.0 1.752898932 4.676543713 68.022468567
198 1 0.0 1.752898932 4.676543713 82.477241516
199 1 0.0 1.752898932 4.676543713 96.932014465
200 1 0.0 1.752898932 4.676543713 111.386787415
201 1 0.0 1.752898932 3.826263189 71.423591614
202 1 0.0 1.752898932 3.826263189 85.878364563
203 1 0.0 1.752898932 3.826263189 100.333137512
204 1 0.0 1.752898932 3.826263189 114.787918091
205 1 0.0 1.752898932 12.754213333 71.848731995
206 1 0.0 1.752898932 12.754213333 86.303504944
207 1 0.0 1.752898932 12.754213333 100.758285522
208 1 0.0 1.752898932 12.754213333 115.213058472
209 1 0.0 1.752898932 1.700561643 58.244235992
210 1 0.0 1.752898932 1.700561643 72.699012756
211 1 0.0 1.752898932 1.700561643 87.153785706
212 1 0.0 1.752898932 1.700561643 101.608566284
213 1 0.0 1.752898932 0.850280821 61.645359039
214 1 0.0 1.752898932 0.850280821 76.100135803
215 1 0.0 1.752898932 0.850280821 90.554908752
216 1 0.0 1.752898932 0.850280821 105.009689331
217 1 0.0 1.752898932 0.0 65.046485901
218 1 0.0 1.752898932 0.0 79.50125885
219 1 0.0 1.752898932 0.0 93.956039429
220 1 0.0 1.752898932 0.0 108.410812378
221 1 0.0 1.752898932 13.604493141 68.447608948
222 1 0.0 1.752898932 13.604493141 82.902381897
223 1 0.0 1.752898932 13.604493141 97.357162476
224 1 0.0 1.752898932 13.604493141 111.811935425
225 1 0.0 1.752898932 11.903932571 60.795074463
226 1 0.0 1.752898932 11.903932571 75.249855042
227 1 0.0 1.752898932 11.903932571 89.704627991
228 1 0.0 1.752898932 11.903932571 104.15940094
229 1 0.0 1.752898932 11.053652763 64.196205139
230 1 0.0 1.752898932 11.053652763 78.650978088
231 1 0.0 1.752898932 11.053652763 93.105751038
232 1 0.0 1.752898932 11.053652763 107.560531616
233 1 0.0 1.752898932 10.203369141 67.597328186
234 1 0.0 1.752898932 10.203369141 82.052108765
235 1 0.0 1.752898932 10.203369141 96.506881714
236 1 0.0 1.752898932 10.203369141 110.961647034
237 1 0.0 1.752898932 9.353089333 70.998451233
238 1 0.0 1.752898932 9.353089333 85.453224182
239 1 0.0 1.752898932 9.353089333 99.908004761
240 1 0.0 1.752898932 9.353089333 114.36277771
241 1 0.0 1.752898932 8.502807617 59.944801331
242 1 0.0 1.752898932 8.502807617 74.39957428
243 1 0.0 1.752898932 8.502807617 88.854354858
244 1 0.0 1.752898932 8.502807617 103.309127808
245 1 0.0 1.752898932 7.652527809 63.345920563
246 1 0.0 1.752898932 7.652527809 77.800697327
247 1 0.0 1.752898932 7.652527809 92.255470276
248 1 0.0 1.752898932 7.652527809 106.710250854
249 1 0.0 1.752898932 6.802246571 66.747047424
250 1 0.0 1.752898932 6.802246571 81.201820374
251 1 0.0 1.752898932 6.802246571 95.656600952
252 1 0.0 1.752898932 6.802246571 110.111373901
253 1 0.0 1.752898932 5.951965809 70.148170471
254 1 0.0 1.752898932 5.951965809 84.60294342
255 1 0.0 1.752898932 5.951965809 99.05771637
256 1 0.0 1.752898932 5.951965809 113.512496948
257 1 0.0 1.752898932 5.10168457 59.094520569
258 1 0.0 1.752898932 5.10168457 73.549293518
259 1 0.0 1.752898932 5.10168457 88.004074097
260 1 0.0 1.752898932 5.10168457 102.458847046
261 1 0.0 1.752898932 4.251403809 62.495639801
262 1 0.0 1.752898932 4.251403809 76.950416565
263 1 0.0 1.752898932 4.251403809 91.405189514
264 1 0.0 1.752898932 4.251403809 105.859970093
265 1 0.0 1.752898932 3.401122332 65.896766663
266 1 0.0 1.752898932 3.401122332 80.351539612
267 1 0.0 1.752898932 3.401122332 94.80632019
268 1 0.0 1.752898932 3.401122332 109.26109314
269 1 0.0 1.752898932 2.550842285 69.297889709
270 1 0.0 1.752898932 2.550842285 83.752670288
271 1 0.0 1.752898932 2.550842285 98.207443237
272 1 0.0 1.752898932 2.550842285 112.662216187
273 2 0.0 0.0 0.0 0.0
274 2 0.0 0.0 0.0 14.454774857
275 2 0.0 0.0 0.0 28.909549713
276 2 0.0 0.0 0.0 43.364322662
277 2 0.0 0.0 11.053652763 0.850280881
278 2 0.0 0.0 11.053652763 15.305055618
279 2 0.0 0.0 11.053652763 29.759830475
280 2 0.0 0.0 11.053652763 44.214611053
281 2 0.0 0.0 11.903932571 4.251404285
282 2 0.0 0.0 11.903932571 18.706178665
283 2 0.0 0.0 11.903932571 33.160953522
284 2 0.0 0.0 11.903932571 47.615730286
285 2 0.0 0.0 12.754213333 7.652527809
286 2 0.0 0.0 12.754213333 22.107305527
287 2 0.0 0.0 12.754213333 36.562076569
288 2 0.0 0.0 12.754213333 51.016853333
289 2 0.0 0.0 13.604494095 11.053652763
290 2 0.0 0.0 13.604494095 25.508426666
291 2 0.0 0.0 13.604494095 39.963199615
292 2 0.0 0.0 13.604494095 54.417976379
293 2 0.0 0.0 0.850280881 3.401123524
294 2 0.0 0.0 0.850280881 17.855897903
295 2 0.0 0.0 0.850280881 32.31067276
296 2 0.0 0.0 0.850280881 46.765445709
297 2 0.0 0.0 1.700561762 6.802247047
298 2 0.0 0.0 1.700561762 21.25702095
299 2 0.0 0.0 1.700561762 35.711795807
300 2 0.0 0.0 1.700561762 50.166568756
301 2 0.0 0.0 2.550842524 10.203370094
302 2 0.0 0.0 2.550842524 24.658143997
303 2 0.0 0.0 2.550842524 39.112918854
304 2 0.0 0.0 2.550842524 53.567695618
305 2 0.0 0.0 3.401123524 13.604494095
306 2 0.0 0.0 3.401123524 28.059267044
307 2 0.0 0.0 3.401123524 42.514041901
308 2 0.0 0.0 3.401123524 56.968818665
309 2 0.0 0.0 4.251404285 2.550842524
310 2 0.0 0.0 4.251404285 17.005617142
311 2 0.0 0.0 4.251404285 31.460390091
312 2 0.0 0.0 4.251404285 45.915164948
313 2 0.0 0.0 5.101685047 5.951966286
314 2 0.0 0.0 5.101685047 20.406740189
315 2 0.0 0.0 5.101685047 34.86151123
316 2 0.0 0.0 5.101685047 49.316287994
317 2 0.0 0.0 5.951966286 9.353089333
318 2 0.0 0.0 5.951966286 23.807865143
319 2 0.0 0.0 5.951966286 38.262645721
320 2 0.0 0.0 5.951966286 52.717414856
321 2 0.0 0.0 6.802247047 12.754213333
322 2 0.0 0.0 6.802247047 27.20898819
323 2 0.0 0.0 6.802247047 41.663761139
324 2 0.0 0.0 6.802247047 56.118534088
325 2 0.0 0.0 7.652527809 1.700561762
326 2 0.0 0.0 7.652527809 16.15533638
327 2 0.0 0.0 7.652527809 30.610111237
328 2 0.0 0.0 7.652527809 45.064888
329 2 0.0 0.0 8.502808571 5.101685047
330 2 0.0 0.0 8.502808571 19.556459427
331 2 0.0 0.0 8.502808571 34.011234283
332 2 0.0 0.0 8.502808571 48.466011047
333 2 0.0 0.0 9.353089333 8.502808571
334 2 0.0 0.0 9.353089333 22.957584381
335 2 0.0 0.0 9.353089333 37.41235733
336 2 0.0 0.0 9.353089333 51.867134094
337 2 0.0 0.0 10.203370094 11.903932571
338 2 0.0 0.0 10.203370094 26.358707428
339 2 0.0 0.0 10.203370094 40.813480377
340 2 0.0 0.0 10.203370094 55.268257141
341 2 0.0 0.0 2.125702143 1.275421262
342 2 0.0 0.0 2.125702143 15.730195045
343 2 0.0 0.0 2.125702143 30.184970856
344 2 0.0 0.0 2.125702143 44.63974762
345 2 0.0 0.0 13.179353714 2.125702143
346 2 0.0 0.0 13.179353714 16.580476761
347 2 0.0 0.0 13.179353714 31.03524971
348 2 0.0 0.0 13.179353714 45.490024567
349 2 0.0 0.0 14.029634476 5.526826382
350 2 0.0 0.0 14.029634476 19.981599808
351 2 0.0 0.0 14.029634476 34.436374664
352 2 0.0 0.0 14.029634476 48.891151428
353 2 0.0 0.0 0.425140858 8.927949905
354 2 0.0 0.0 0.425140858 23.382724762
355 2 0.0 0.0 0.425140858 37.837497711
356 2 0.0 0.0 0.425140858 52.292274475
357 2 0.0 0.0 1.275420785 12.329072952
358 2 0.0 0.0 1.275420785 26.783851624
359 2 0.0 0.0 1.275420785 41.238628387
360 2 0.0 0.0 1.275420785 55.693397522
361 2 0.0 0.0 2.975983143 4.676544666
362 2 0.0 0.0 2.975983143 19.131322861
363 2 0.0 0.0 2.975983143 33.586093903
364 2 0.0 0.0 2.975983143 48.040870667
365 2 0.0 0.0 3.826263905 8.07766819
366 2 0.0 0.0 3.826263905 22.532444
367 2 0.0 0.0 3.826263905 36.987216949
368 2 0.0 0.0 3.826263905 51.441993713
369 2 0.0 0.0 4.676544666 11.478792191
370 2 0.0 0.0 4.676544666 25.933567047
371 2 0.0 0.0 4.676544666 40.388339996
372 2 0.0 0.0 4.676544666 54.84311676
373 2 0.0 0.0 5.526826382 0.425140858
374 2 0.0 0.0 5.526826382 14.879915237
375 2 0.0 0.0 5.526826382 29.334688187
376 2 0.0 0.0 5.526826382 43.789463043
377 2 0.0 0.0 6.377106667 3.826263905
378 2 0.0 0.0 6.377106667 18.281038284
379 2 0.0 0.0 6.377106667 32.735813141
380 2 0.0 0.0 6.377106667 47.190593719
381 2 0.0 0.0 7.227387428 7.227387428
382 2 0.0 0.0 7.227387428 21.682161331
383 2 0.0 0.0 7.227387428 36.136936188
384 2 0.0 0.0 7.227387428 50.591712952
385 2 0.0 0.0 8.07766819 10.628511429
386 2 0.0 0.0 8.07766819 25.083284378
387 2 0.0 0.0 8.07766819 39.538059235
388 2 0.0 0.0 8.07766819 53.992835999
389 2 0.0 0.0 8.927948952 14.029634476
390 2 0.0 0.0 8.927948952 28.484409332
391 2 0.0 0.0 8.927948952 42.939182281
392 2 0.0 0.0 8.927948952 57.393959045
393 2 0.0 0.0 9.778230667 2.975983143
394 2 0.0 0.0 9.778230667 17.430755615
395 2 0.0 0.0 9.778230667 31.885530472
396 2 0.0 0.0 9.778230667 46.340305328
397 2 0.0 0.0 10.628511429 6.377106667
398 2 0.0 0.0 10.628511429 20.831880569
399 2 0.0 0.0 10.628511429 35.286655426
400 2 0.0 0.0 10.628511429 49.741428375
401 2 0.0 0.0 11.478792191 9.778230667
402 2 0.0 0.0 11.478792191 24.233005524
403 2 0.0 0.0 11.478792191 38.687782288
404 2 0.0 0.0 11.478792191 53.142555237
405 2 0.0 0.0 12.329072952 13.179353714
406 2 0.0 0.0 12.329072952 27.634128571
407 2 0.0 0.0 12.329072952 42.08890152
408 2 0.0 0.0 12.329072952 56.543678284
409 2 0.0 1.752898932 0.42514044 1.700561762
410 2 0.0 1.752898932 0.42514044 16.15533638
411 2 0.0 1.752898932 0.42514044 30.610111237
412 2 0.0 1.752898932 0.42514044 45.064888
413 2 0.0 1.752898932 11.478792191 2.550842524
414 2 0.0 1.752898932 11.478792191 17.005617142
415 2 0.0 1.752898932 11.478792191 31.460390091
416 2 0.0 1.752898932 11.478792191 45.915164948
417 2 0.0 1.752898932 12.329072952 5.951966286
418 2 0.0 1.752898932 12.329072952 20.406740189
419 2 0.0 1.752898932 12.329072952 34.86151123
420 2 0.0 1.752898932 12.329072952 49.316287994
421 2 0.0 1.752898932 13.179353714 9.353089333
422 2 0.0 1.752898932 13.179353714 23.807865143
423 2 0.0 1.752898932 13.179353714 38.262645721
424 2 0.0 1.752898932 13.179353714 52.717414856
425 2 0.0 1.752898932 14.029634476 12.754213333
426 2 0.0 1.752898932 14.029634476 27.20898819
427 2 0.0 1.752898932 14.029634476 41.663761139
428 2 0.0 1.752898932 14.029634476 56.118534088
429 2 0.0 1.752898932 1.275421262 5.101685047
430 2 0.0 1.752898932 1.275421262 19.556459427
431 2 0.0 1.752898932 1.275421262 34.011234283
432 2 0.0 1.752898932 1.275421262 48.466011047
433 2 0.0 1.752898932 2.125702143 8.502808571
434 2 0.0 1.752898932 2.125702143 22.957584381
435 2 0.0 1.752898932 2.125702143 37.41235733
436 2 0.0 1.752898932 2.125702143 51.867134094
437 2 0.0 1.752898932 2.975983143 11.903932571
438 2 0.0 1.752898932 2.975983143 26.358707428
439 2 0.0 1.752898932 2.975983143 40.813480377
440 2 0.0 1.752898932 2.975983143 55.268257141
441 2 0.0 1.752898932 3.826263905 0.850281715
442 2 0.0 1.752898932 3.826263905 15.305055618
443 2 0.0 1.752898932 3.826263905 29.759830475
444 2 0.0 1.752898932 3.826263905 44.214611053
445 2 0.0 1.752898932 4.676544666 4.251404285
446 2 0.0 1.752898932 4.676544666 18.706178665
447 2 0.0 1.752898932 4.676544666 33.160953522
448 2 0.0 1.752898932 4.676544666 47.615730286
449 2 0.0 1.752898932 5.526826382 7.652527809
450 2 0.0 1.752898932 5.526826382 22.107305527
451 2 0.0 1.752898932 5.526826382 36.562076569
452 2 0.0 1.752898932 5.526826382 51.016853333
453 2 0.0 1.752898932 6.377106667 11.053652763
454 2 0.0 1.752898932 6.377106667 25.508426666
455 2 0.0 1.752898932 6.377106667 39.963199615
456 2 0.0 1.752898932 6.377106667 54.417976379
457 2 0.0 1.752898932 7.227387428 0.0
458 2 0.0 1.752898932 7.227387428 14.454774857
459 2 0.0 1.752898932 7.227387428 28.909549713
460 2 0.0 1.752898932 7.227387428 43.364322662
461 2 0.0 1.752898932 8.077670097 3.401123524
462 2 0.0 1.752898932 8.077670097 17.855897903
463 2 0.0 1.752898932 8.077670097 32.31067276
464 2 0.0 1.752898932 8.077670097 46.765445709
465 2 0.0 1.752898932 8.927949905 6.802247047
466 2 0.0 1.752898932 8.927949905 21.25702095
467 2 0.0 1.752898932 8.927949905 35.711795807
468 2 0.0 1.752898932 8.927949905 50.166568756
469 2 0.0 1.752898932 9.778230667 10.203370094
470 2 0.0 1.752898932 9.778230667 24.658143997
471 2 0.0 1.752898932 9.778230667 39.112918854
472 2 0.0 1.752898932 9.778230667 53.567695618
473 2 0.0 1.752898932 10.628511429 13.604494095
474 2 0.0 1.752898932 10.628511429 28.059267044
475 2 0.0 1.752898932 10.628511429 42.514041901
476 2 0.0 1.752898932 10.628511429 56.968818665
477 2 0.0 1.752898932 1.700561762 14.029633522
478 2 0.0 1.752898932 1.700561762 28.484409332
479 2 0.0 1.752898932 1.700561762 42.939182281
480 2 0.0 1.752898932 1.700561762 57.393959045
481 2 0.0 1.752898932 12.754213333 0.425140858
482 2 0.0 1.752898932 12.754213333 14.879915237
483 2 0.0 1.752898932 12.754213333 29.334688187
484 2 0.0 1.752898932 12.754213333 43.789463043
485 2 0.0 1.752898932 13.604494095 3.826263905
486 2 0.0 1.752898932 13.604494095 18.281038284
487 2 0.0 1.752898932 13.604494095 32.735813141
488 2 0.0 1.752898932 13.604494095 47.190593719
489 2 0.0 1.752898932 0.0 7.227387428
490 2 0.0 1.752898932 0.0 21.682161331
491 2 0.0 1.752898932 0.0 36.136936188
492 2 0.0 1.752898932 0.0 50.591712952
493 2 0.0 1.752898932 0.850281715 10.628510475
494 2 0.0 1.752898932 0.850281715 25.083284378
495 2 0.0 1.752898932 0.850281715 39.538059235
496 2 0.0 1.752898932 0.850281715 53.992835999
497 2 0.0 1.752898932 2.550842524 2.975982428
498 2 0.0 1.752898932 2.550842524 17.430755615
499 2 0.0 1.752898932 2.550842524 31.885530472
500 2 0.0 1.752898932 2.550842524 46.340305328
501 2 0.0 1.752898932 3.401123524 6.377105713
502 2 0.0 1.752898932 3.401123524 20.831880569
503 2 0.0 1.752898932 3.401123524 35.286655426
504 2 0.0 1.752898932 3.401123524 49.741428375
505 2 0.0 1.752898932 4.251404285 9.77822876
506 2 0.0 1.752898932 4.251404285 24.233003616
507 2 0.0 1.752898932 4.251404285 38.687778473
508 2 0.0 1.752898932 4.251404285 53.142551422
509 2 0.0 1.752898932 5.101685047 13.179351807
510 2 0.0 1.752898932 5.101685047 27.634126663
511 2 0.0 1.752898932 5.101685047 42.08890152
512 2 0.0 1.752898932 5.101685047 56.543678284
513 2 0.0 1.752898932 5.951966286 2.125702381
514 2 0.0 1.752898932 5.951966286 16.580476761
515 2 0.0 1.752898932 5.951966286 31.035251617
516 2 0.0 1.752898932 5.951966286 45.490028381
517 2 0.0 1.752898932 6.802247047 5.526826382
518 2 0.0 1.752898932 6.802247047 19.981599808
519 2 0.0 1.752898932 6.802247047 34.436374664
520 2 0.0 1.752898932 6.802247047 48.891151428
521 2 0.0 1.752898932 7.652527809 8.927948952
522 2 0.0 1.752898932 7.652527809 23.382722855
523 2 0.0 1.752898932 7.652527809 37.837497711
524 2 0.0 1.752898932 7.652527809 52.292274475
525 2 0.0 1.752898932 8.502808571 12.329071999
526 2 0.0 1.752898932 8.502808571 26.783847809
527 2 0.0 1.752898932 8.502808571 41.238620758
528 2 0.0 1.752898932 8.502808571 55.693393707
529 2 0.0 1.752898932 9.353089333 1.275420785
530 2 0.0 1.752898932 9.353089333 15.730195045
531 2 0.0 1.752898932 9.353089333 30.184970856
532 2 0.0 1.752898932 9.353089333 44.63974762
533 2 0.0 1.752898932 10.203370094 4.676543713
534 2 0.0 1.752898932 10.203370094 19.131319046
535 2 0.0 1.752898932 10.203370094 33.586090088
536 2 0.0 1.752898932 10.203370094 48.040866852
537 2 0.0 1.752898932 11.053652763 8.077670097
538 2 0.0 1.752898932 11.053652763 22.532444
539 2 0.0 1.752898932 11.053652763 36.987216949
540 2 0.0 1.752898932 11.053652763 51.441993713
541 2 0.0 1.752898932 11.903932571 11.478792191
542 2 0.0 1.752898932 11.903932571 25.933567047
543 2 0.0 1.752898932 11.903932571 40.388339996
544 2 0.0 1.752898932 11.903932571 54.84311676
