# LAMMPS data file written by Ovito Basic 3.0.0-dev791
160 atoms
2 atom types
0.0 3.5057981014 xlo xhi
0.0 7.8392028809 ylo yhi
0.0 62.7136230469 zlo zhi

Atoms  # charge

1 1 0.0 0.0 0.0 31.356809616
2 1 0.0 0.0 0.0 39.19601059
3 1 0.0 0.0 0.0 47.03521347
4 1 0.0 0.0 0.0 54.874416351
5 1 0.0 0.0 3.135680676 32.924648285
6 1 0.0 0.0 3.135680676 40.763851166
7 1 0.0 0.0 3.135680676 48.603054047
8 1 0.0 0.0 3.135680676 56.442256927
9 1 0.0 0.0 1.567840338 36.060329437
10 1 0.0 0.0 1.567840338 43.899532318
11 1 0.0 0.0 1.567840338 51.738735199
12 1 0.0 0.0 1.567840338 59.57793808
13 1 0.0 0.0 6.271361828 34.492488861
14 1 0.0 0.0 6.271361828 42.331691742
15 1 0.0 0.0 6.271361828 50.170894623
16 1 0.0 0.0 6.271361828 58.010097504
17 1 0.0 0.0 4.703521252 37.628170013
18 1 0.0 0.0 4.703521252 45.467372894
19 1 0.0 0.0 4.703521252 53.306575775
20 1 0.0 0.0 4.703521252 61.145778656
21 1 0.0 0.0 5.48744154 32.140727997
22 1 0.0 0.0 5.48744154 39.979930878
23 1 0.0 0.0 5.48744154 47.819133759
24 1 0.0 0.0 5.48744154 55.658336639
25 1 0.0 0.0 0.78391993 33.708568573
26 1 0.0 0.0 0.78391993 41.547771454
27 1 0.0 0.0 0.78391993 49.386974335
28 1 0.0 0.0 0.78391993 57.226177216
29 1 0.0 0.0 7.055282116 36.844249725
30 1 0.0 0.0 7.055282116 44.683452606
31 1 0.0 0.0 7.055282116 52.522655487
32 1 0.0 0.0 7.055282116 60.361858368
33 1 0.0 0.0 3.919601202 35.276409149
34 1 0.0 0.0 3.919601202 43.11561203
35 1 0.0 0.0 3.919601202 50.954814911
36 1 0.0 0.0 3.919601202 58.794017792
37 1 0.0 0.0 2.351760149 38.412090302
38 1 0.0 0.0 2.351760149 46.251293182
39 1 0.0 0.0 2.351760149 54.090496063
40 1 0.0 0.0 2.351760149 61.929698944
41 1 0.0 1.752898932 7.055282116 32.924648285
42 1 0.0 1.752898932 7.055282116 40.763851166
43 1 0.0 1.752898932 7.055282116 48.603054047
44 1 0.0 1.752898932 7.055282116 56.442256927
45 1 0.0 1.752898932 2.351760149 34.492488861
46 1 0.0 1.752898932 2.351760149 42.331691742
47 1 0.0 1.752898932 2.351760149 50.170894623
48 1 0.0 1.752898932 2.351760149 58.010097504
49 1 0.0 1.752898932 0.78391993 37.628170013
50 1 0.0 1.752898932 0.78391993 45.467372894
51 1 0.0 1.752898932 0.78391993 53.306575775
52 1 0.0 1.752898932 0.78391993 61.145778656
53 1 0.0 1.752898932 5.48744154 36.060329437
54 1 0.0 1.752898932 5.48744154 43.899532318
55 1 0.0 1.752898932 5.48744154 51.738735199
56 1 0.0 1.752898932 5.48744154 59.57793808
57 1 0.0 1.752898932 3.919601202 31.356809616
58 1 0.0 1.752898932 3.919601202 39.19601059
59 1 0.0 1.752898932 3.919601202 47.03521347
60 1 0.0 1.752898932 3.919601202 54.874416351
61 1 0.0 1.752898932 6.271361828 38.412090302
62 1 0.0 1.752898932 6.271361828 46.251293182
63 1 0.0 1.752898932 6.271361828 54.090496063
64 1 0.0 1.752898932 6.271361828 61.929698944
65 1 0.0 1.752898932 1.567840338 32.140727997
66 1 0.0 1.752898932 1.567840338 39.979930878
67 1 0.0 1.752898932 1.567840338 47.819133759
68 1 0.0 1.752898932 1.567840338 55.658336639
69 1 0.0 1.752898932 0.0 35.276409149
70 1 0.0 1.752898932 0.0 43.11561203
71 1 0.0 1.752898932 0.0 50.954814911
72 1 0.0 1.752898932 0.0 58.794017792
73 1 0.0 1.752898932 4.703521252 33.708568573
74 1 0.0 1.752898932 4.703521252 41.547771454
75 1 0.0 1.752898932 4.703521252 49.386974335
76 1 0.0 1.752898932 4.703521252 57.226177216
77 1 0.0 1.752898932 3.135680676 36.844249725
78 1 0.0 1.752898932 3.135680676 44.683452606
79 1 0.0 1.752898932 3.135680676 52.522655487
80 1 0.0 1.752898932 3.135680676 60.361858368
81 2 0.0 0.0 0.0 0.0
82 2 0.0 0.0 0.0 7.839202404
83 2 0.0 0.0 0.0 15.678404808
84 2 0.0 0.0 0.0 23.517606735
85 2 0.0 0.0 4.703521252 1.567840457
86 2 0.0 0.0 4.703521252 9.407042503
87 2 0.0 0.0 4.703521252 17.246244431
88 2 0.0 0.0 4.703521252 25.085447311
89 2 0.0 0.0 6.271361828 4.703521252
90 2 0.0 0.0 6.271361828 12.542723656
91 2 0.0 0.0 6.271361828 20.381925583
92 2 0.0 0.0 6.271361828 28.221128464
93 2 0.0 0.0 1.567840457 3.135680914
94 2 0.0 0.0 1.567840457 10.97488308
95 2 0.0 0.0 1.567840457 18.814085007
96 2 0.0 0.0 1.567840457 26.653287888
97 2 0.0 0.0 3.135680914 6.271361828
98 2 0.0 0.0 3.135680914 14.110564232
99 2 0.0 0.0 3.135680914 21.949766159
100 2 0.0 0.0 3.135680914 29.78896904
101 2 0.0 0.0 2.351760626 0.783920228
102 2 0.0 0.0 2.351760626 8.623122215
103 2 0.0 0.0 2.351760626 16.462324142
104 2 0.0 0.0 2.351760626 24.301527023
105 2 0.0 0.0 7.055282593 2.351760626
106 2 0.0 0.0 7.055282593 10.190962791
107 2 0.0 0.0 7.055282593 18.030164719
108 2 0.0 0.0 7.055282593 25.869367599
109 2 0.0 0.0 0.783920407 5.487442017
110 2 0.0 0.0 0.783920407 13.326643944
111 2 0.0 0.0 0.783920407 21.165845871
112 2 0.0 0.0 0.783920407 29.005048752
113 2 0.0 0.0 3.919601202 3.919601202
114 2 0.0 0.0 3.919601202 11.758803368
115 2 0.0 0.0 3.919601202 19.598005295
116 2 0.0 0.0 3.919601202 27.437208176
117 2 0.0 0.0 5.487442017 7.055282593
118 2 0.0 0.0 5.487442017 14.894485474
119 2 0.0 0.0 5.487442017 22.733686447
120 2 0.0 0.0 5.487442017 30.572889328
121 2 0.0 1.752898932 0.783920228 1.567840457
122 2 0.0 1.752898932 0.783920228 9.407042503
123 2 0.0 1.752898932 0.783920228 17.246244431
124 2 0.0 1.752898932 0.783920228 25.085447311
125 2 0.0 1.752898932 5.487442017 3.135680914
126 2 0.0 1.752898932 5.487442017 10.97488308
127 2 0.0 1.752898932 5.487442017 18.814085007
128 2 0.0 1.752898932 5.487442017 26.653287888
129 2 0.0 1.752898932 7.055282593 6.271361828
130 2 0.0 1.752898932 7.055282593 14.110564232
131 2 0.0 1.752898932 7.055282593 21.949766159
132 2 0.0 1.752898932 7.055282593 29.78896904
133 2 0.0 1.752898932 2.351760626 4.703521252
134 2 0.0 1.752898932 2.351760626 12.542723656
135 2 0.0 1.752898932 2.351760626 20.381925583
136 2 0.0 1.752898932 2.351760626 28.221128464
137 2 0.0 1.752898932 3.919601202 0.0
138 2 0.0 1.752898932 3.919601202 7.839202404
139 2 0.0 1.752898932 3.919601202 15.678404808
140 2 0.0 1.752898932 3.919601202 23.517606735
141 2 0.0 1.752898932 1.567840457 7.055282116
142 2 0.0 1.752898932 1.567840457 14.89448452
143 2 0.0 1.752898932 1.567840457 22.733686447
144 2 0.0 1.752898932 1.567840457 30.572889328
145 2 0.0 1.752898932 6.271361828 0.783920407
146 2 0.0 1.752898932 6.271361828 8.623122215
147 2 0.0 1.752898932 6.271361828 16.462324142
148 2 0.0 1.752898932 6.271361828 24.301527023
149 2 0.0 1.752898932 0.0 3.919601202
150 2 0.0 1.752898932 0.0 11.758803368
151 2 0.0 1.752898932 0.0 19.598005295
152 2 0.0 1.752898932 0.0 27.437208176
153 2 0.0 1.752898932 3.135680914 2.351760149
154 2 0.0 1.752898932 3.135680914 10.190962791
155 2 0.0 1.752898932 3.135680914 18.030164719
156 2 0.0 1.752898932 3.135680914 25.869367599
157 2 0.0 1.752898932 4.703521252 5.487442017
158 2 0.0 1.752898932 4.703521252 13.326643944
159 2 0.0 1.752898932 4.703521252 21.165845871
160 2 0.0 1.752898932 4.703521252 29.005048752
