# LAMMPS data file written by Ovito Basic 3.0.0-dev791
832 atoms
2 atom types
0.0 3.5057981014 xlo xhi
0.0 17.8761329651 ylo yhi
0.0 143.0090637207 zlo zhi

Atoms  # charge

1 1 0.0 0.0 0.0 71.504524231
2 1 0.0 0.0 0.0 89.380653381
3 1 0.0 0.0 0.0 107.256790161
4 1 0.0 0.0 0.0 125.132919312
5 1 0.0 0.0 3.437717915 72.192070007
6 1 0.0 0.0 3.437717915 90.068199158
7 1 0.0 0.0 3.437717915 107.944335938
8 1 0.0 0.0 3.437717915 125.820465088
9 1 0.0 0.0 2.750173807 75.62978363
10 1 0.0 0.0 2.750173807 93.505912781
11 1 0.0 0.0 2.750173807 111.382049561
12 1 0.0 0.0 2.750173807 129.258178711
13 1 0.0 0.0 2.062630892 79.067504883
14 1 0.0 0.0 2.062630892 96.943634033
15 1 0.0 0.0 2.062630892 114.819763184
16 1 0.0 0.0 2.062630892 132.695892334
17 1 0.0 0.0 1.375087976 82.505218506
18 1 0.0 0.0 1.375087976 100.381355286
19 1 0.0 0.0 1.375087976 118.257484436
20 1 0.0 0.0 1.375087976 136.133605957
21 1 0.0 0.0 0.687543988 85.942939758
22 1 0.0 0.0 0.687543988 103.819076538
23 1 0.0 0.0 0.687543988 121.695205688
24 1 0.0 0.0 0.687543988 139.57131958
25 1 0.0 0.0 17.188587189 74.942237854
26 1 0.0 0.0 17.188587189 92.818367004
27 1 0.0 0.0 17.188587189 110.694503784
28 1 0.0 0.0 17.188587189 128.570632935
29 1 0.0 0.0 16.50104332 78.379959106
30 1 0.0 0.0 16.50104332 96.256095886
31 1 0.0 0.0 16.50104332 114.132225037
32 1 0.0 0.0 16.50104332 132.008346558
33 1 0.0 0.0 15.813501358 81.817672729
34 1 0.0 0.0 15.813501358 99.693817139
35 1 0.0 0.0 15.813501358 117.569946289
36 1 0.0 0.0 15.813501358 135.446075439
37 1 0.0 0.0 15.125957489 85.255393982
38 1 0.0 0.0 15.125957489 103.131530762
39 1 0.0 0.0 15.125957489 121.007659912
40 1 0.0 0.0 15.125957489 138.883789063
41 1 0.0 0.0 14.43841362 88.693107605
42 1 0.0 0.0 14.43841362 106.569244385
43 1 0.0 0.0 14.43841362 124.445373535
44 1 0.0 0.0 14.43841362 142.321502686
45 1 0.0 0.0 13.750870705 74.254699707
46 1 0.0 0.0 13.750870705 92.130828857
47 1 0.0 0.0 13.750870705 110.006965637
48 1 0.0 0.0 13.750870705 127.883094788
49 1 0.0 0.0 13.063326836 77.69241333
50 1 0.0 0.0 13.063326836 95.56855011
51 1 0.0 0.0 13.063326836 113.44467926
52 1 0.0 0.0 13.063326836 131.320800781
53 1 0.0 0.0 12.37578392 81.130134583
54 1 0.0 0.0 12.37578392 99.006271362
55 1 0.0 0.0 12.37578392 116.882400513
56 1 0.0 0.0 12.37578392 134.758529663
57 1 0.0 0.0 11.688239098 84.567848206
58 1 0.0 0.0 11.688239098 102.443984985
59 1 0.0 0.0 11.688239098 120.320114136
60 1 0.0 0.0 11.688239098 138.196243286
61 1 0.0 0.0 11.000695229 88.005561829
62 1 0.0 0.0 11.000695229 105.881698608
63 1 0.0 0.0 11.000695229 123.757827759
64 1 0.0 0.0 11.000695229 141.633956909
65 1 0.0 0.0 10.313152313 73.567153931
66 1 0.0 0.0 10.313152313 91.443283081
67 1 0.0 0.0 10.313152313 109.319419861
68 1 0.0 0.0 10.313152313 127.195549011
69 1 0.0 0.0 9.625609398 77.004875183
70 1 0.0 0.0 9.625609398 94.881011963
71 1 0.0 0.0 9.625609398 112.757141113
72 1 0.0 0.0 9.625609398 130.633270264
73 1 0.0 0.0 8.938065529 80.442588806
74 1 0.0 0.0 8.938065529 98.318725586
75 1 0.0 0.0 8.938065529 116.194854736
76 1 0.0 0.0 8.938065529 134.070983887
77 1 0.0 0.0 8.25052166 83.880302429
78 1 0.0 0.0 8.25052166 101.756439209
79 1 0.0 0.0 8.25052166 119.632568359
80 1 0.0 0.0 8.25052166 137.50869751
81 1 0.0 0.0 7.562978745 87.318023682
82 1 0.0 0.0 7.562978745 105.194160461
83 1 0.0 0.0 7.562978745 123.070289612
84 1 0.0 0.0 7.562978745 140.946411133
85 1 0.0 0.0 6.875434875 72.879608154
86 1 0.0 0.0 6.875434875 90.755744934
87 1 0.0 0.0 6.875434875 108.631881714
88 1 0.0 0.0 6.875434875 126.508010864
89 1 0.0 0.0 6.18789196 76.317329407
90 1 0.0 0.0 6.18789196 94.193466187
91 1 0.0 0.0 6.18789196 112.069595337
92 1 0.0 0.0 6.18789196 129.945724487
93 1 0.0 0.0 5.500347614 79.75504303
94 1 0.0 0.0 5.500347614 97.63117981
95 1 0.0 0.0 5.500347614 115.50730896
96 1 0.0 0.0 5.500347614 133.38343811
97 1 0.0 0.0 4.812804699 83.192764282
98 1 0.0 0.0 4.812804699 101.068901062
99 1 0.0 0.0 4.812804699 118.945030212
100 1 0.0 0.0 4.812804699 136.821151733
101 1 0.0 0.0 4.12526083 86.630477905
102 1 0.0 0.0 4.12526083 104.506614685
103 1 0.0 0.0 4.12526083 122.382743835
104 1 0.0 0.0 4.12526083 140.258865356
105 1 0.0 0.0 15.813501358 72.879608154
106 1 0.0 0.0 15.813501358 90.755744934
107 1 0.0 0.0 15.813501358 108.631881714
108 1 0.0 0.0 15.813501358 126.508010864
109 1 0.0 0.0 1.375087976 73.567153931
110 1 0.0 0.0 1.375087976 91.443283081
111 1 0.0 0.0 1.375087976 109.319419861
112 1 0.0 0.0 1.375087976 127.195549011
113 1 0.0 0.0 0.687543988 77.004875183
114 1 0.0 0.0 0.687543988 94.881011963
115 1 0.0 0.0 0.687543988 112.757141113
116 1 0.0 0.0 0.687543988 130.633270264
117 1 0.0 0.0 0.0 80.442588806
118 1 0.0 0.0 0.0 98.318725586
119 1 0.0 0.0 0.0 116.194854736
120 1 0.0 0.0 0.0 134.070983887
121 1 0.0 0.0 17.188587189 83.880302429
122 1 0.0 0.0 17.188587189 101.756439209
123 1 0.0 0.0 17.188587189 119.632568359
124 1 0.0 0.0 17.188587189 137.50869751
125 1 0.0 0.0 16.501045227 87.318023682
126 1 0.0 0.0 16.501045227 105.194160461
127 1 0.0 0.0 16.501045227 123.070289612
128 1 0.0 0.0 16.501045227 140.946411133
129 1 0.0 0.0 15.125957489 76.317329407
130 1 0.0 0.0 15.125957489 94.193466187
131 1 0.0 0.0 15.125957489 112.069595337
132 1 0.0 0.0 15.125957489 129.945724487
133 1 0.0 0.0 14.43841362 79.75504303
134 1 0.0 0.0 14.43841362 97.63117981
135 1 0.0 0.0 14.43841362 115.50730896
136 1 0.0 0.0 14.43841362 133.38343811
137 1 0.0 0.0 13.750870705 83.192764282
138 1 0.0 0.0 13.750870705 101.068901062
139 1 0.0 0.0 13.750870705 118.945030212
140 1 0.0 0.0 13.750870705 136.821151733
141 1 0.0 0.0 13.063326836 86.630477905
142 1 0.0 0.0 13.063326836 104.506614685
143 1 0.0 0.0 13.063326836 122.382743835
144 1 0.0 0.0 13.063326836 140.258865356
145 1 0.0 0.0 12.37578392 72.192070007
146 1 0.0 0.0 12.37578392 90.068199158
147 1 0.0 0.0 12.37578392 107.944335938
148 1 0.0 0.0 12.37578392 125.820465088
149 1 0.0 0.0 11.688239098 75.62978363
150 1 0.0 0.0 11.688239098 93.505912781
151 1 0.0 0.0 11.688239098 111.382049561
152 1 0.0 0.0 11.688239098 129.258178711
153 1 0.0 0.0 11.000695229 79.067504883
154 1 0.0 0.0 11.000695229 96.943634033
155 1 0.0 0.0 11.000695229 114.819763184
156 1 0.0 0.0 11.000695229 132.695892334
157 1 0.0 0.0 10.313152313 82.505218506
158 1 0.0 0.0 10.313152313 100.381355286
159 1 0.0 0.0 10.313152313 118.257484436
160 1 0.0 0.0 10.313152313 136.133605957
161 1 0.0 0.0 9.625609398 85.942939758
162 1 0.0 0.0 9.625609398 103.819076538
163 1 0.0 0.0 9.625609398 121.695205688
164 1 0.0 0.0 9.625609398 139.57131958
165 1 0.0 0.0 8.938065529 71.504524231
166 1 0.0 0.0 8.938065529 89.380653381
167 1 0.0 0.0 8.938065529 107.256790161
168 1 0.0 0.0 8.938065529 125.132919312
169 1 0.0 0.0 8.25052166 74.942237854
170 1 0.0 0.0 8.25052166 92.818367004
171 1 0.0 0.0 8.25052166 110.694503784
172 1 0.0 0.0 8.25052166 128.570632935
173 1 0.0 0.0 7.562978745 78.379959106
174 1 0.0 0.0 7.562978745 96.256095886
175 1 0.0 0.0 7.562978745 114.132225037
176 1 0.0 0.0 7.562978745 132.008346558
177 1 0.0 0.0 6.875434875 81.817672729
178 1 0.0 0.0 6.875434875 99.693817139
179 1 0.0 0.0 6.875434875 117.569946289
180 1 0.0 0.0 6.875434875 135.446075439
181 1 0.0 0.0 6.18789053 85.255393982
182 1 0.0 0.0 6.18789053 103.131530762
183 1 0.0 0.0 6.18789053 121.007659912
184 1 0.0 0.0 6.18789053 138.883789063
185 1 0.0 0.0 5.500347614 88.693107605
186 1 0.0 0.0 5.500347614 106.569244385
187 1 0.0 0.0 5.500347614 124.445373535
188 1 0.0 0.0 5.500347614 142.321502686
189 1 0.0 0.0 4.812803745 74.254699707
190 1 0.0 0.0 4.812803745 92.130828857
191 1 0.0 0.0 4.812803745 110.006965637
192 1 0.0 0.0 4.812803745 127.883094788
193 1 0.0 0.0 4.12526083 77.69241333
194 1 0.0 0.0 4.12526083 95.56855011
195 1 0.0 0.0 4.12526083 113.44467926
196 1 0.0 0.0 4.12526083 131.320800781
197 1 0.0 0.0 3.437716961 81.130134583
198 1 0.0 0.0 3.437716961 99.006271362
199 1 0.0 0.0 3.437716961 116.882400513
200 1 0.0 0.0 3.437716961 134.758529663
201 1 0.0 0.0 2.750173807 84.567848206
202 1 0.0 0.0 2.750173807 102.443984985
203 1 0.0 0.0 2.750173807 120.320114136
204 1 0.0 0.0 2.750173807 138.196243286
205 1 0.0 0.0 2.062630177 88.005561829
206 1 0.0 0.0 2.062630177 105.881698608
207 1 0.0 0.0 2.062630177 123.757827759
208 1 0.0 0.0 2.062630177 141.633956909
209 1 0.0 1.752898932 17.53235817 73.223381042
210 1 0.0 1.752898932 17.53235817 91.099510193
211 1 0.0 1.752898932 17.53235817 108.975646973
212 1 0.0 1.752898932 17.53235817 126.851776123
213 1 0.0 1.752898932 3.09394598 73.910926819
214 1 0.0 1.752898932 3.09394598 91.787055969
215 1 0.0 1.752898932 3.09394598 109.663192749
216 1 0.0 1.752898932 3.09394598 127.539321899
217 1 0.0 1.752898932 2.406401873 77.348640442
218 1 0.0 1.752898932 2.406401873 95.224784851
219 1 0.0 1.752898932 2.406401873 113.100914001
220 1 0.0 1.752898932 2.406401873 130.977035522
221 1 0.0 1.752898932 1.718858957 80.786361694
222 1 0.0 1.752898932 1.718858957 98.662498474
223 1 0.0 1.752898932 1.718858957 116.538627625
224 1 0.0 1.752898932 1.718858957 134.414749146
225 1 0.0 1.752898932 1.031315088 84.224075317
226 1 0.0 1.752898932 1.031315088 102.100212097
227 1 0.0 1.752898932 1.031315088 119.976341248
228 1 0.0 1.752898932 1.031315088 137.852462769
229 1 0.0 1.752898932 0.343773067 87.66179657
230 1 0.0 1.752898932 0.343773067 105.53792572
231 1 0.0 1.752898932 0.343773067 123.4140625
232 1 0.0 1.752898932 0.343773067 141.29019165
233 1 0.0 1.752898932 16.844816208 76.661102295
234 1 0.0 1.752898932 16.844816208 94.537239075
235 1 0.0 1.752898932 16.844816208 112.413368225
236 1 0.0 1.752898932 16.844816208 130.289489746
237 1 0.0 1.752898932 16.157272339 80.098815918
238 1 0.0 1.752898932 16.157272339 97.974952698
239 1 0.0 1.752898932 16.157272339 115.851081848
240 1 0.0 1.752898932 16.157272339 133.727203369
241 1 0.0 1.752898932 15.46972847 83.53653717
242 1 0.0 1.752898932 15.46972847 101.412666321
243 1 0.0 1.752898932 15.46972847 119.288795471
244 1 0.0 1.752898932 15.46972847 137.164916992
245 1 0.0 1.752898932 14.782185555 86.974250793
246 1 0.0 1.752898932 14.782185555 104.850387573
247 1 0.0 1.752898932 14.782185555 122.726516724
248 1 0.0 1.752898932 14.782185555 140.602645874
249 1 0.0 1.752898932 14.094642639 72.535842896
250 1 0.0 1.752898932 14.094642639 90.411972046
251 1 0.0 1.752898932 14.094642639 108.288108826
252 1 0.0 1.752898932 14.094642639 126.164237976
253 1 0.0 1.752898932 13.40709877 75.973556519
254 1 0.0 1.752898932 13.40709877 93.849693298
255 1 0.0 1.752898932 13.40709877 111.725822449
256 1 0.0 1.752898932 13.40709877 129.60194397
257 1 0.0 1.752898932 12.719554901 79.411270142
258 1 0.0 1.752898932 12.719554901 97.287406921
259 1 0.0 1.752898932 12.719554901 115.163536072
260 1 0.0 1.752898932 12.719554901 133.039657593
261 1 0.0 1.752898932 12.032010078 82.848991394
262 1 0.0 1.752898932 12.032010078 100.725128174
263 1 0.0 1.752898932 12.032010078 118.601257324
264 1 0.0 1.752898932 12.032010078 136.477386475
265 1 0.0 1.752898932 11.344467163 86.286705017
266 1 0.0 1.752898932 11.344467163 104.162849426
267 1 0.0 1.752898932 11.344467163 122.038978577
268 1 0.0 1.752898932 11.344467163 139.915100098
269 1 0.0 1.752898932 10.656924248 71.848297119
270 1 0.0 1.752898932 10.656924248 89.72442627
271 1 0.0 1.752898932 10.656924248 107.600563049
272 1 0.0 1.752898932 10.656924248 125.4766922
273 1 0.0 1.752898932 9.969380379 75.286010742
274 1 0.0 1.752898932 9.969380379 93.162139893
275 1 0.0 1.752898932 9.969380379 111.038276672
276 1 0.0 1.752898932 9.969380379 128.914398193
277 1 0.0 1.752898932 9.281837463 78.723731995
278 1 0.0 1.752898932 9.281837463 96.599868774
279 1 0.0 1.752898932 9.281837463 114.475997925
280 1 0.0 1.752898932 9.281837463 132.352127075
281 1 0.0 1.752898932 8.594293594 82.161445618
282 1 0.0 1.752898932 8.594293594 100.037582397
283 1 0.0 1.752898932 8.594293594 117.913711548
284 1 0.0 1.752898932 8.594293594 135.789840698
285 1 0.0 1.752898932 7.906749725 85.59916687
286 1 0.0 1.752898932 7.906749725 103.47530365
287 1 0.0 1.752898932 7.906749725 121.3514328
288 1 0.0 1.752898932 7.906749725 139.227554321
289 1 0.0 1.752898932 7.21920681 89.036880493
290 1 0.0 1.752898932 7.21920681 106.913017273
291 1 0.0 1.752898932 7.21920681 124.789146423
292 1 0.0 1.752898932 7.21920681 142.665267944
293 1 0.0 1.752898932 6.531662941 74.598472595
294 1 0.0 1.752898932 6.531662941 92.474594116
295 1 0.0 1.752898932 6.531662941 110.350730896
296 1 0.0 1.752898932 6.531662941 128.226867676
297 1 0.0 1.752898932 5.844119549 78.036186218
298 1 0.0 1.752898932 5.844119549 95.912322998
299 1 0.0 1.752898932 5.844119549 113.788452148
300 1 0.0 1.752898932 5.844119549 131.664581299
301 1 0.0 1.752898932 5.15657568 81.473907471
302 1 0.0 1.752898932 5.15657568 99.35004425
303 1 0.0 1.752898932 5.15657568 117.226173401
304 1 0.0 1.752898932 5.15657568 135.102294922
305 1 0.0 1.752898932 4.469032764 84.911621094
306 1 0.0 1.752898932 4.469032764 102.787757874
307 1 0.0 1.752898932 4.469032764 120.663887024
308 1 0.0 1.752898932 4.469032764 138.540008545
309 1 0.0 1.752898932 3.781488895 88.349334717
310 1 0.0 1.752898932 3.781488895 106.225471497
311 1 0.0 1.752898932 3.781488895 124.101600647
312 1 0.0 1.752898932 3.781488895 141.977722168
313 1 0.0 1.752898932 16.157272339 89.036880493
314 1 0.0 1.752898932 16.157272339 106.913017273
315 1 0.0 1.752898932 16.157272339 124.789146423
316 1 0.0 1.752898932 16.157272339 142.665267944
317 1 0.0 1.752898932 1.718858957 71.848297119
318 1 0.0 1.752898932 1.718858957 89.72442627
319 1 0.0 1.752898932 1.718858957 107.600563049
320 1 0.0 1.752898932 1.718858957 125.4766922
321 1 0.0 1.752898932 1.031315088 75.286010742
322 1 0.0 1.752898932 1.031315088 93.162139893
323 1 0.0 1.752898932 1.031315088 111.038276672
324 1 0.0 1.752898932 1.031315088 128.914398193
325 1 0.0 1.752898932 0.343773067 78.723731995
326 1 0.0 1.752898932 0.343773067 96.599868774
327 1 0.0 1.752898932 0.343773067 114.475997925
328 1 0.0 1.752898932 0.343773067 132.352127075
329 1 0.0 1.752898932 17.532360077 82.161445618
330 1 0.0 1.752898932 17.532360077 100.037582397
331 1 0.0 1.752898932 17.532360077 117.913711548
332 1 0.0 1.752898932 17.532360077 135.789840698
333 1 0.0 1.752898932 16.844816208 85.59916687
334 1 0.0 1.752898932 16.844816208 103.47530365
335 1 0.0 1.752898932 16.844816208 121.3514328
336 1 0.0 1.752898932 16.844816208 139.227554321
337 1 0.0 1.752898932 15.46972847 74.598464966
338 1 0.0 1.752898932 15.46972847 92.474594116
339 1 0.0 1.752898932 15.46972847 110.350730896
340 1 0.0 1.752898932 15.46972847 128.226867676
341 1 0.0 1.752898932 14.782185555 78.036186218
342 1 0.0 1.752898932 14.782185555 95.912322998
343 1 0.0 1.752898932 14.782185555 113.788452148
344 1 0.0 1.752898932 14.782185555 131.664581299
345 1 0.0 1.752898932 14.094642639 81.473907471
346 1 0.0 1.752898932 14.094642639 99.35004425
347 1 0.0 1.752898932 14.094642639 117.226173401
348 1 0.0 1.752898932 14.094642639 135.102294922
349 1 0.0 1.752898932 13.40709877 84.911621094
350 1 0.0 1.752898932 13.40709877 102.787757874
351 1 0.0 1.752898932 13.40709877 120.663887024
352 1 0.0 1.752898932 13.40709877 138.540008545
353 1 0.0 1.752898932 12.719554901 88.349334717
354 1 0.0 1.752898932 12.719554901 106.225471497
355 1 0.0 1.752898932 12.719554901 124.101600647
356 1 0.0 1.752898932 12.719554901 141.977722168
357 1 0.0 1.752898932 12.032011986 73.910926819
358 1 0.0 1.752898932 12.032011986 91.787055969
359 1 0.0 1.752898932 12.032011986 109.663192749
360 1 0.0 1.752898932 12.032011986 127.539321899
361 1 0.0 1.752898932 11.344467163 77.348648071
362 1 0.0 1.752898932 11.344467163 95.224784851
363 1 0.0 1.752898932 11.344467163 113.100914001
364 1 0.0 1.752898932 11.344467163 130.977035522
365 1 0.0 1.752898932 10.656924248 80.786361694
366 1 0.0 1.752898932 10.656924248 98.662498474
367 1 0.0 1.752898932 10.656924248 116.538627625
368 1 0.0 1.752898932 10.656924248 134.414749146
369 1 0.0 1.752898932 9.969380379 84.224075317
370 1 0.0 1.752898932 9.969380379 102.100212097
371 1 0.0 1.752898932 9.969380379 119.976341248
372 1 0.0 1.752898932 9.969380379 137.852462769
373 1 0.0 1.752898932 9.281837463 87.66179657
374 1 0.0 1.752898932 9.281837463 105.53792572
375 1 0.0 1.752898932 9.281837463 123.4140625
376 1 0.0 1.752898932 9.281837463 141.29019165
377 1 0.0 1.752898932 8.594293594 73.223381042
378 1 0.0 1.752898932 8.594293594 91.099510193
379 1 0.0 1.752898932 8.594293594 108.975646973
380 1 0.0 1.752898932 8.594293594 126.851776123
381 1 0.0 1.752898932 7.906750679 76.661102295
382 1 0.0 1.752898932 7.906750679 94.537239075
383 1 0.0 1.752898932 7.906750679 112.413368225
384 1 0.0 1.752898932 7.906750679 130.289489746
385 1 0.0 1.752898932 7.21920681 80.098815918
386 1 0.0 1.752898932 7.21920681 97.974952698
387 1 0.0 1.752898932 7.21920681 115.851081848
388 1 0.0 1.752898932 7.21920681 133.727203369
389 1 0.0 1.752898932 6.531662941 83.536529541
390 1 0.0 1.752898932 6.531662941 101.412666321
391 1 0.0 1.752898932 6.531662941 119.288795471
392 1 0.0 1.752898932 6.531662941 137.164916992
393 1 0.0 1.752898932 5.844119549 86.974250793
394 1 0.0 1.752898932 5.844119549 104.850387573
395 1 0.0 1.752898932 5.844119549 122.726516724
396 1 0.0 1.752898932 5.844119549 140.602645874
397 1 0.0 1.752898932 5.15657568 72.535842896
398 1 0.0 1.752898932 5.15657568 90.411972046
399 1 0.0 1.752898932 5.15657568 108.288108826
400 1 0.0 1.752898932 5.15657568 126.164237976
401 1 0.0 1.752898932 4.469032764 75.973556519
402 1 0.0 1.752898932 4.469032764 93.849693298
403 1 0.0 1.752898932 4.469032764 111.725822449
404 1 0.0 1.752898932 4.469032764 129.60194397
405 1 0.0 1.752898932 3.781488895 79.411270142
406 1 0.0 1.752898932 3.781488895 97.287406921
407 1 0.0 1.752898932 3.781488895 115.163536072
408 1 0.0 1.752898932 3.781488895 133.039657593
409 1 0.0 1.752898932 3.09394598 82.848991394
410 1 0.0 1.752898932 3.09394598 100.725128174
411 1 0.0 1.752898932 3.09394598 118.601257324
412 1 0.0 1.752898932 3.09394598 136.477386475
413 1 0.0 1.752898932 2.406401873 86.286712646
414 1 0.0 1.752898932 2.406401873 104.162849426
415 1 0.0 1.752898932 2.406401873 122.038978577
416 1 0.0 1.752898932 2.406401873 139.915100098
417 2 0.0 0.0 0.0 0.0
418 2 0.0 0.0 0.0 17.876131058
419 2 0.0 0.0 0.0 35.752262115
420 2 0.0 0.0 0.0 53.628395081
421 2 0.0 0.0 14.43841362 0.687543511
422 2 0.0 0.0 14.43841362 18.563674927
423 2 0.0 0.0 14.43841362 36.439804077
424 2 0.0 0.0 14.43841362 54.315937042
425 2 0.0 0.0 15.125957489 4.12526083
426 2 0.0 0.0 15.125957489 22.001390457
427 2 0.0 0.0 15.125957489 39.877521515
428 2 0.0 0.0 15.125957489 57.75365448
429 2 0.0 0.0 15.813500404 7.562978745
430 2 0.0 0.0 15.813500404 25.439109802
431 2 0.0 0.0 15.813500404 43.315238953
432 2 0.0 0.0 15.813500404 61.191371918
433 2 0.0 0.0 16.50104332 11.000696182
434 2 0.0 0.0 16.50104332 28.87682724
435 2 0.0 0.0 16.50104332 46.75295639
436 2 0.0 0.0 16.50104332 64.629089355
437 2 0.0 0.0 17.188587189 14.43841362
438 2 0.0 0.0 17.188587189 32.314544678
439 2 0.0 0.0 17.188587189 50.190677643
440 2 0.0 0.0 17.188587189 68.066802979
441 2 0.0 0.0 0.687543511 3.437717676
442 2 0.0 0.0 0.687543511 21.313848495
443 2 0.0 0.0 0.687543511 39.189979553
444 2 0.0 0.0 0.687543511 57.066112518
445 2 0.0 0.0 1.375087023 6.875435352
446 2 0.0 0.0 1.375087023 24.751567841
447 2 0.0 0.0 1.375087023 42.627696991
448 2 0.0 0.0 1.375087023 60.503829956
449 2 0.0 0.0 2.062630415 10.313152313
450 2 0.0 0.0 2.062630415 28.189285278
451 2 0.0 0.0 2.062630415 46.065414429
452 2 0.0 0.0 2.062630415 63.941547394
453 2 0.0 0.0 2.750174046 13.750870705
454 2 0.0 0.0 2.750174046 31.627002716
455 2 0.0 0.0 2.750174046 49.503135681
456 2 0.0 0.0 2.750174046 67.379264832
457 2 0.0 0.0 3.437717676 17.188587189
458 2 0.0 0.0 3.437717676 35.064716339
459 2 0.0 0.0 3.437717676 52.940849304
460 2 0.0 0.0 3.437717676 70.816978455
461 2 0.0 0.0 4.12526083 2.750174046
462 2 0.0 0.0 4.12526083 20.626304626
463 2 0.0 0.0 4.12526083 38.502437592
464 2 0.0 0.0 4.12526083 56.378570557
465 2 0.0 0.0 4.812804699 6.18789196
466 2 0.0 0.0 4.812804699 24.064023972
467 2 0.0 0.0 4.812804699 41.940151215
468 2 0.0 0.0 4.812804699 59.81628418
469 2 0.0 0.0 5.500348091 9.625609398
470 2 0.0 0.0 5.500348091 27.501741409
471 2 0.0 0.0 5.500348091 45.377872467
472 2 0.0 0.0 5.500348091 63.254005432
473 2 0.0 0.0 6.18789196 13.063326836
474 2 0.0 0.0 6.18789196 30.93945694
475 2 0.0 0.0 6.18789196 48.815589905
476 2 0.0 0.0 6.18789196 66.691719055
477 2 0.0 0.0 6.875435352 16.50104332
478 2 0.0 0.0 6.875435352 34.377174377
479 2 0.0 0.0 6.875435352 52.253307343
480 2 0.0 0.0 6.875435352 70.129432678
481 2 0.0 0.0 7.562978745 2.062630415
482 2 0.0 0.0 7.562978745 19.938760757
483 2 0.0 0.0 7.562978745 37.814891815
484 2 0.0 0.0 7.562978745 55.69102478
485 2 0.0 0.0 8.25052166 5.500348091
486 2 0.0 0.0 8.25052166 23.376478195
487 2 0.0 0.0 8.25052166 41.252609253
488 2 0.0 0.0 8.25052166 59.128742218
489 2 0.0 0.0 8.938065529 8.938065529
490 2 0.0 0.0 8.938065529 26.81419754
491 2 0.0 0.0 8.938065529 44.690326691
492 2 0.0 0.0 8.938065529 62.566459656
493 2 0.0 0.0 9.625609398 12.37578392
494 2 0.0 0.0 9.625609398 30.251914978
495 2 0.0 0.0 9.625609398 48.128047943
496 2 0.0 0.0 9.625609398 66.004173279
497 2 0.0 0.0 10.313152313 15.813500404
498 2 0.0 0.0 10.313152313 33.689632416
499 2 0.0 0.0 10.313152313 51.565765381
500 2 0.0 0.0 10.313152313 69.441894531
501 2 0.0 0.0 11.000696182 1.375087023
502 2 0.0 0.0 11.000696182 19.251218796
503 2 0.0 0.0 11.000696182 37.127349854
504 2 0.0 0.0 11.000696182 55.003482819
505 2 0.0 0.0 11.688239098 4.812804699
506 2 0.0 0.0 11.688239098 22.688936234
507 2 0.0 0.0 11.688239098 40.565067291
508 2 0.0 0.0 11.688239098 58.441200256
509 2 0.0 0.0 12.37578392 8.25052166
510 2 0.0 0.0 12.37578392 26.126653671
511 2 0.0 0.0 12.37578392 44.002780914
512 2 0.0 0.0 12.37578392 61.878913879
513 2 0.0 0.0 13.063326836 11.688239098
514 2 0.0 0.0 13.063326836 29.564371109
515 2 0.0 0.0 13.063326836 47.440505981
516 2 0.0 0.0 13.063326836 65.316635132
517 2 0.0 0.0 13.750870705 15.125957489
518 2 0.0 0.0 13.750870705 33.002086639
519 2 0.0 0.0 13.750870705 50.878219604
520 2 0.0 0.0 13.750870705 68.754348755
521 2 0.0 0.0 2.062630415 1.375087023
522 2 0.0 0.0 2.062630415 19.251218796
523 2 0.0 0.0 2.062630415 37.127349854
524 2 0.0 0.0 2.062630415 55.003482819
525 2 0.0 0.0 16.50104332 2.062630653
526 2 0.0 0.0 16.50104332 19.938760757
527 2 0.0 0.0 16.50104332 37.814891815
528 2 0.0 0.0 16.50104332 55.69102478
529 2 0.0 0.0 17.188587189 5.500348091
530 2 0.0 0.0 17.188587189 23.376478195
531 2 0.0 0.0 17.188587189 41.252609253
532 2 0.0 0.0 17.188587189 59.128742218
533 2 0.0 0.0 0.0 8.938065529
534 2 0.0 0.0 0.0 26.81419754
535 2 0.0 0.0 0.0 44.690326691
536 2 0.0 0.0 0.0 62.566459656
537 2 0.0 0.0 0.687543988 12.37578392
538 2 0.0 0.0 0.687543988 30.251914978
539 2 0.0 0.0 0.687543988 48.128047943
540 2 0.0 0.0 0.687543988 66.004173279
541 2 0.0 0.0 1.375085831 15.813500404
542 2 0.0 0.0 1.375085831 33.689632416
543 2 0.0 0.0 1.375085831 51.565765381
544 2 0.0 0.0 1.375085831 69.441894531
545 2 0.0 0.0 2.750174046 4.812804699
546 2 0.0 0.0 2.750174046 22.688936234
547 2 0.0 0.0 2.750174046 40.565067291
548 2 0.0 0.0 2.750174046 58.441200256
549 2 0.0 0.0 3.437717676 8.25052166
550 2 0.0 0.0 3.437717676 26.126653671
551 2 0.0 0.0 3.437717676 44.002780914
552 2 0.0 0.0 3.437717676 61.878913879
553 2 0.0 0.0 4.12526083 11.688239098
554 2 0.0 0.0 4.12526083 29.564371109
555 2 0.0 0.0 4.12526083 47.440505981
556 2 0.0 0.0 4.12526083 65.316635132
557 2 0.0 0.0 4.812804699 15.125957489
558 2 0.0 0.0 4.812804699 33.002086639
559 2 0.0 0.0 4.812804699 50.878219604
560 2 0.0 0.0 4.812804699 68.754348755
561 2 0.0 0.0 5.500348091 0.687543988
562 2 0.0 0.0 5.500348091 18.563674927
563 2 0.0 0.0 5.500348091 36.439807892
564 2 0.0 0.0 5.500348091 54.315940857
565 2 0.0 0.0 6.18789196 4.125261307
566 2 0.0 0.0 6.18789196 22.001392365
567 2 0.0 0.0 6.18789196 39.877521515
568 2 0.0 0.0 6.18789196 57.75365448
569 2 0.0 0.0 6.875435352 7.562978745
570 2 0.0 0.0 6.875435352 25.439109802
571 2 0.0 0.0 6.875435352 43.315238953
572 2 0.0 0.0 6.875435352 61.191371918
573 2 0.0 0.0 7.562978745 11.000696182
574 2 0.0 0.0 7.562978745 28.87682724
575 2 0.0 0.0 7.562978745 46.75295639
576 2 0.0 0.0 7.562978745 64.629089355
577 2 0.0 0.0 8.25052166 14.43841362
578 2 0.0 0.0 8.25052166 32.314544678
579 2 0.0 0.0 8.25052166 50.190677643
580 2 0.0 0.0 8.25052166 68.066802979
581 2 0.0 0.0 8.938065529 0.0
582 2 0.0 0.0 8.938065529 17.876131058
583 2 0.0 0.0 8.938065529 35.752262115
584 2 0.0 0.0 8.938065529 53.628395081
585 2 0.0 0.0 9.625609398 3.437717676
586 2 0.0 0.0 9.625609398 21.313848495
587 2 0.0 0.0 9.625609398 39.189979553
588 2 0.0 0.0 9.625609398 57.066112518
589 2 0.0 0.0 10.313152313 6.875435352
590 2 0.0 0.0 10.313152313 24.751567841
591 2 0.0 0.0 10.313152313 42.627696991
592 2 0.0 0.0 10.313152313 60.503829956
593 2 0.0 0.0 11.000696182 10.313152313
594 2 0.0 0.0 11.000696182 28.189285278
595 2 0.0 0.0 11.000696182 46.065414429
596 2 0.0 0.0 11.000696182 63.941547394
597 2 0.0 0.0 11.688241005 13.750870705
598 2 0.0 0.0 11.688241005 31.627002716
599 2 0.0 0.0 11.688241005 49.503135681
600 2 0.0 0.0 11.688241005 67.379264832
601 2 0.0 0.0 12.37578392 17.188587189
602 2 0.0 0.0 12.37578392 35.064716339
603 2 0.0 0.0 12.37578392 52.940849304
604 2 0.0 0.0 12.37578392 70.816978455
605 2 0.0 0.0 13.063327789 2.750174046
606 2 0.0 0.0 13.063327789 20.626304626
607 2 0.0 0.0 13.063327789 38.502437592
608 2 0.0 0.0 13.063327789 56.378570557
609 2 0.0 0.0 13.750870705 6.18789196
610 2 0.0 0.0 13.750870705 24.064023972
611 2 0.0 0.0 13.750870705 41.940151215
612 2 0.0 0.0 13.750870705 59.81628418
613 2 0.0 0.0 14.438414574 9.625609398
614 2 0.0 0.0 14.438414574 27.501741409
615 2 0.0 0.0 14.438414574 45.377872467
616 2 0.0 0.0 14.438414574 63.254005432
617 2 0.0 0.0 15.125957489 13.063326836
618 2 0.0 0.0 15.125957489 30.93945694
619 2 0.0 0.0 15.125957489 48.815589905
620 2 0.0 0.0 15.125957489 66.691719055
621 2 0.0 0.0 15.813501358 16.50104332
622 2 0.0 0.0 15.813501358 34.377174377
623 2 0.0 0.0 15.813501358 52.253307343
624 2 0.0 0.0 15.813501358 70.129432678
625 2 0.0 1.752898932 0.343771756 1.718858838
626 2 0.0 1.752898932 0.343771756 19.594989777
627 2 0.0 1.752898932 0.343771756 37.471118927
628 2 0.0 1.752898932 0.343771756 55.347251892
629 2 0.0 1.752898932 14.782185555 2.406402349
630 2 0.0 1.752898932 14.782185555 20.282533646
631 2 0.0 1.752898932 14.782185555 38.158664703
632 2 0.0 1.752898932 14.782185555 56.034797668
633 2 0.0 1.752898932 15.469729424 5.844119549
634 2 0.0 1.752898932 15.469729424 23.720252991
635 2 0.0 1.752898932 15.469729424 41.596382141
636 2 0.0 1.752898932 15.469729424 59.472515106
637 2 0.0 1.752898932 16.157272339 9.281837463
638 2 0.0 1.752898932 16.157272339 27.157970428
639 2 0.0 1.752898932 16.157272339 45.034099579
640 2 0.0 1.752898932 16.157272339 62.910232544
641 2 0.0 1.752898932 16.844816208 12.719555855
642 2 0.0 1.752898932 16.844816208 30.595687866
643 2 0.0 1.752898932 16.844816208 48.471820831
644 2 0.0 1.752898932 16.844816208 66.347946167
645 2 0.0 1.752898932 17.53235817 16.157272339
646 2 0.0 1.752898932 17.53235817 34.033401489
647 2 0.0 1.752898932 17.53235817 51.909538269
648 2 0.0 1.752898932 17.53235817 69.785667419
649 2 0.0 1.752898932 1.031315327 5.156576157
650 2 0.0 1.752898932 1.031315327 23.032707214
651 2 0.0 1.752898932 1.031315327 40.908836365
652 2 0.0 1.752898932 1.031315327 58.78496933
653 2 0.0 1.752898932 1.718858838 8.594293594
654 2 0.0 1.752898932 1.718858838 26.470424652
655 2 0.0 1.752898932 1.718858838 44.346553802
656 2 0.0 1.752898932 1.718858838 62.222686768
657 2 0.0 1.752898932 2.406402349 12.032011986
658 2 0.0 1.752898932 2.406402349 29.90814209
659 2 0.0 1.752898932 2.406402349 47.784275055
660 2 0.0 1.752898932 2.406402349 65.660400391
661 2 0.0 1.752898932 3.09394598 15.469729424
662 2 0.0 1.752898932 3.09394598 33.345859528
663 2 0.0 1.752898932 3.09394598 51.221992493
664 2 0.0 1.752898932 3.09394598 69.098121643
665 2 0.0 1.752898932 3.781489372 1.031315088
666 2 0.0 1.752898932 3.781489372 18.907445908
667 2 0.0 1.752898932 3.781489372 36.783576965
668 2 0.0 1.752898932 3.781489372 54.65970993
669 2 0.0 1.752898932 4.469032764 4.469032764
670 2 0.0 1.752898932 4.469032764 22.345163345
671 2 0.0 1.752898932 4.469032764 40.221294403
672 2 0.0 1.752898932 4.469032764 58.097427368
673 2 0.0 1.752898932 5.156576633 7.906750679
674 2 0.0 1.752898932 5.156576633 25.78288269
675 2 0.0 1.752898932 5.156576633 43.659011841
676 2 0.0 1.752898932 5.156576633 61.535144806
677 2 0.0 1.752898932 5.844120502 11.344468117
678 2 0.0 1.752898932 5.844120502 29.220600128
679 2 0.0 1.752898932 5.844120502 47.096733093
680 2 0.0 1.752898932 5.844120502 64.972862244
681 2 0.0 1.752898932 6.531663895 14.782185555
682 2 0.0 1.752898932 6.531663895 32.658317566
683 2 0.0 1.752898932 6.531663895 50.534450531
684 2 0.0 1.752898932 6.531663895 68.410575867
685 2 0.0 1.752898932 7.219207287 0.343770921
686 2 0.0 1.752898932 7.219207287 18.219902039
687 2 0.0 1.752898932 7.219207287 36.096035004
688 2 0.0 1.752898932 7.219207287 53.972167969
689 2 0.0 1.752898932 7.906750679 3.781489372
690 2 0.0 1.752898932 7.906750679 21.657619476