# LAMMPS data file written by Ovito Basic 3.0.0-dev791
760 atoms
4 atom types
0.0 34.3810005188 xlo xhi
0.0 34.3810005188 ylo yhi
0.0 34.3810005188 zlo zhi

Atoms  # charge

1 1 0.0 9.722946167 9.722946167 7.470991135
2 1 0.0 24.658054352 24.658054352 26.910009384
3 1 0.0 24.658054352 24.658054352 7.470991135
4 1 0.0 9.722946167 9.722946167 26.910009384
5 1 0.0 24.658054352 9.722946167 26.910009384
6 1 0.0 9.722946167 24.658054352 7.470991135
7 1 0.0 9.722946167 24.658054352 26.910009384
8 1 0.0 24.658054352 9.722946167 7.470991135
9 1 0.0 7.470991135 9.722946167 9.722946167
10 1 0.0 26.910009384 24.658054352 24.658054352
11 1 0.0 7.470991135 24.658054352 24.658054352
12 1 0.0 26.910009384 9.722946167 9.722946167
13 1 0.0 26.910009384 24.658054352 9.722946167
14 1 0.0 7.470991135 9.722946167 24.658054352
15 1 0.0 26.910009384 9.722946167 24.658054352
16 1 0.0 7.470991135 24.658054352 9.722946167
17 1 0.0 9.722946167 7.470991135 9.722946167
18 1 0.0 24.658054352 26.910009384 24.658054352
19 1 0.0 24.658054352 7.470991135 24.658054352
20 1 0.0 9.722946167 26.910009384 9.722946167
21 1 0.0 9.722946167 26.910009384 24.658054352
22 1 0.0 24.658054352 7.470991135 9.722946167
23 1 0.0 24.658054352 26.910009384 9.722946167
24 1 0.0 9.722946167 7.470991135 24.658054352
25 1 0.0 7.470991135 26.913446426 26.913446426
26 1 0.0 26.910009384 7.467553616 7.467553616
27 1 0.0 7.470991135 7.467553616 7.467553616
28 1 0.0 26.910009384 26.913446426 26.913446426
29 1 0.0 26.910009384 7.467553616 26.913446426
30 1 0.0 7.470991135 26.913446426 7.467553616
31 1 0.0 26.910009384 26.913446426 7.467553616
32 1 0.0 7.470991135 7.467553616 26.913446426
33 2 0.0 8.59525013 8.59525013 8.59525013
34 2 0.0 25.785751343 25.785751343 25.785751343
35 2 0.0 25.785751343 25.785751343 8.59525013
36 2 0.0 8.59525013 8.59525013 25.785751343
37 2 0.0 25.785751343 8.59525013 25.785751343
38 2 0.0 8.59525013 25.785751343 8.59525013
39 2 0.0 8.59525013 25.785751343 25.785751343
40 2 0.0 25.785751343 8.59525013 8.59525013
41 2 0.0 9.368823051 9.368823051 5.545655727
42 2 0.0 25.012176514 25.012176514 28.835344315
43 2 0.0 25.012176514 25.012176514 5.545655727
44 2 0.0 9.368823051 9.368823051 28.835344315
45 2 0.0 25.012176514 9.368823051 28.835344315
46 2 0.0 9.368823051 25.012176514 5.545655727
47 2 0.0 9.368823051 25.012176514 28.835344315
48 2 0.0 25.012176514 9.368823051 5.545655727
49 2 0.0 5.545655727 9.368823051 9.368823051
50 2 0.0 28.835344315 25.012176514 25.012176514
51 2 0.0 5.545655727 25.012176514 25.012176514
52 2 0.0 28.835344315 9.368823051 9.368823051
53 2 0.0 28.835344315 25.012176514 9.368823051
54 2 0.0 5.545655727 9.368823051 25.012176514
55 2 0.0 28.835344315 9.368823051 25.012176514
56 2 0.0 5.545655727 25.012176514 9.368823051
57 2 0.0 9.368823051 5.545655727 9.368823051
58 2 0.0 25.012176514 28.835344315 25.012176514
59 2 0.0 25.012176514 5.545655727 25.012176514
60 2 0.0 9.368823051 28.835344315 9.368823051
61 2 0.0 9.368823051 28.835344315 25.012176514
62 2 0.0 25.012176514 5.545655727 9.368823051
63 2 0.0 25.012176514 28.835344315 9.368823051
64 2 0.0 9.368823051 5.545655727 25.012176514
65 2 0.0 9.368823051 26.559324265 22.736156464
66 2 0.0 25.012176514 7.821677208 11.644845009
67 2 0.0 25.012176514 7.821677208 22.736156464
68 2 0.0 9.368823051 26.559324265 11.644845009
69 2 0.0 25.012176514 26.559324265 11.644845009
70 2 0.0 9.368823051 7.821677208 22.736156464
71 2 0.0 9.368823051 7.821677208 11.644845009
72 2 0.0 25.012176514 26.559324265 22.736156464
73 2 0.0 5.545655727 26.559324265 26.559324265
74 2 0.0 28.835344315 7.821677208 7.821677208
75 2 0.0 5.545655727 7.821677208 7.821677208
76 2 0.0 28.835344315 26.559324265 26.559324265
77 2 0.0 28.835344315 7.821677208 26.559324265
78 2 0.0 5.545655727 26.559324265 7.821677208
79 2 0.0 28.835344315 26.559324265 7.821677208
80 2 0.0 5.545655727 7.821677208 26.559324265
81 2 0.0 9.368823051 22.736156464 26.559324265
82 2 0.0 25.012176514 11.644845009 7.821677208
83 2 0.0 25.012176514 22.736156464 7.821677208
84 2 0.0 9.368823051 11.644845009 26.559324265
85 2 0.0 9.368823051 11.644845009 7.821677208
86 2 0.0 25.012176514 22.736156464 26.559324265
87 2 0.0 25.012176514 11.644845009 26.559324265
88 2 0.0 9.368823051 22.736156464 7.821677208
89 2 0.0 26.559324265 9.368823051 22.736156464
90 2 0.0 7.821677208 25.012176514 11.644845009
91 2 0.0 7.821677208 25.012176514 22.736156464
92 2 0.0 26.559324265 9.368823051 11.644845009
93 2 0.0 7.821677208 9.368823051 11.644845009
94 2 0.0 26.559324265 25.012176514 22.736156464
95 2 0.0 26.559324265 25.012176514 11.644845009
96 2 0.0 7.821677208 9.368823051 22.736156464
97 2 0.0 22.736156464 9.368823051 26.559324265
98 2 0.0 11.644845009 25.012176514 7.821677208
99 2 0.0 22.736156464 25.012176514 7.821677208
100 2 0.0 11.644845009 9.368823051 26.559324265
101 2 0.0 11.644845009 25.012176514 26.559324265
102 2 0.0 22.736156464 9.368823051 7.821677208
103 2 0.0 11.644845009 9.368823051 7.821677208
104 2 0.0 22.736156464 25.012176514 26.559324265
105 2 0.0 26.559324265 5.545655727 26.559324265
106 2 0.0 7.821677208 28.835344315 7.821677208
107 2 0.0 7.821677208 5.545655727 7.821677208
108 2 0.0 26.559324265 28.835344315 26.559324265
109 2 0.0 26.559324265 28.835344315 7.821677208
110 2 0.0 7.821677208 5.545655727 26.559324265
111 2 0.0 7.821677208 28.835344315 26.559324265
112 2 0.0 26.559324265 5.545655727 7.821677208
113 2 0.0 26.559324265 26.559324265 5.545655727
114 2 0.0 7.821677208 7.821677208 28.835344315
115 2 0.0 7.821677208 7.821677208 5.545655727
116 2 0.0 26.559324265 26.559324265 28.835344315
117 2 0.0 7.821677208 26.559324265 28.835344315
118 2 0.0 26.559324265 7.821677208 5.545655727
119 2 0.0 26.559324265 7.821677208 28.835344315
120 2 0.0 7.821677208 26.559324265 5.545655727
121 2 0.0 22.736156464 26.559324265 9.368823051
122 2 0.0 11.644845009 7.821677208 25.012176514
123 2 0.0 22.736156464 7.821677208 25.012176514
124 2 0.0 11.644845009 26.559324265 9.368823051
125 2 0.0 11.644845009 7.821677208 9.368823051
126 2 0.0 22.736156464 26.559324265 25.012176514
127 2 0.0 11.644845009 26.559324265 25.012176514
128 2 0.0 22.736156464 7.821677208 9.368823051
129 2 0.0 26.559324265 22.736156464 9.368823051
130 2 0.0 7.821677208 11.644845009 25.012176514
131 2 0.0 7.821677208 22.736156464 25.012176514
132 2 0.0 26.559324265 11.644845009 9.368823051
133 2 0.0 26.559324265 11.644845009 25.012176514
134 2 0.0 7.821677208 22.736156464 9.368823051
135 2 0.0 7.821677208 11.644845009 9.368823051
136 2 0.0 26.559324265 22.736156464 25.012176514
137 3 0.0 8.59525013 8.59525013 4.94054985
138 3 0.0 25.785751343 25.785751343 29.440450668
139 3 0.0 25.785751343 25.785751343 4.94054985
140 3 0.0 8.59525013 8.59525013 29.440450668
141 3 0.0 25.785751343 8.59525013 29.440450668
142 3 0.0 8.59525013 25.785751343 4.94054985
143 3 0.0 8.59525013 25.785751343 29.440450668
144 3 0.0 25.785751343 8.59525013 4.94054985
145 3 0.0 4.94054985 8.59525013 8.59525013
146 3 0.0 29.440450668 25.785751343 25.785751343
147 3 0.0 4.94054985 25.785751343 25.785751343
148 3 0.0 29.440450668 8.59525013 8.59525013
149 3 0.0 29.440450668 25.785751343 8.59525013
150 3 0.0 4.94054985 8.59525013 25.785751343
151 3 0.0 29.440450668 8.59525013 25.785751343
152 3 0.0 4.94054985 25.785751343 8.59525013
153 3 0.0 8.59525013 4.94054985 8.59525013
154 3 0.0 25.785751343 29.440450668 25.785751343
155 3 0.0 25.785751343 4.94054985 25.785751343
156 3 0.0 8.59525013 29.440450668 8.59525013
157 3 0.0 8.59525013 29.440450668 25.785751343
158 3 0.0 25.785751343 4.94054985 8.59525013
159 3 0.0 25.785751343 29.440450668 8.59525013
160 3 0.0 8.59525013 4.94054985 25.785751343
161 3 0.0 8.59525013 25.785751343 22.13105011
162 3 0.0 25.785751343 8.59525013 12.249950409
163 3 0.0 25.785751343 8.59525013 22.13105011
164 3 0.0 8.59525013 25.785751343 12.249950409
165 3 0.0 25.785751343 25.785751343 12.249950409
166 3 0.0 8.59525013 8.59525013 22.13105011
167 3 0.0 8.59525013 8.59525013 12.249950409
168 3 0.0 25.785751343 25.785751343 22.13105011
169 3 0.0 8.59525013 22.13105011 25.785751343
170 3 0.0 25.785751343 12.249950409 8.59525013
171 3 0.0 25.785751343 22.13105011 8.59525013
172 3 0.0 8.59525013 12.249950409 25.785751343
173 3 0.0 8.59525013 12.249950409 8.59525013
174 3 0.0 25.785751343 22.13105011 25.785751343
175 3 0.0 25.785751343 12.249950409 25.785751343
176 3 0.0 8.59525013 22.13105011 8.59525013
177 3 0.0 22.13105011 8.59525013 25.785751343
178 3 0.0 12.249950409 25.785751343 8.59525013
179 3 0.0 22.13105011 25.785751343 8.59525013
180 3 0.0 12.249950409 8.59525013 25.785751343
181 3 0.0 12.249950409 25.785751343 25.785751343
182 3 0.0 22.13105011 8.59525013 8.59525013
183 3 0.0 12.249950409 8.59525013 8.59525013
184 3 0.0 22.13105011 25.785751343 25.785751343
185 3 0.0 8.59525013 8.59525013 3.60312891
186 3 0.0 25.785751343 25.785751343 30.777872086
187 3 0.0 25.785751343 25.785751343 3.60312891
188 3 0.0 8.59525013 8.59525013 30.777872086
189 3 0.0 25.785751343 8.59525013 30.777872086
190 3 0.0 8.59525013 25.785751343 3.60312891
191 3 0.0 8.59525013 25.785751343 30.777872086
192 3 0.0 25.785751343 8.59525013 3.60312891
193 3 0.0 3.60312891 8.59525013 8.59525013
194 3 0.0 30.777872086 25.785751343 25.785751343
195 3 0.0 3.60312891 25.785751343 25.785751343
196 3 0.0 30.777872086 8.59525013 8.59525013
197 3 0.0 30.777872086 25.785751343 8.59525013
198 3 0.0 3.60312891 8.59525013 25.785751343
199 3 0.0 30.777872086 8.59525013 25.785751343
200 3 0.0 3.60312891 25.785751343 8.59525013
201 3 0.0 8.59525013 3.60312891 8.59525013
202 3 0.0 25.785751343 30.777872086 25.785751343
203 3 0.0 25.785751343 3.60312891 25.785751343
204 3 0.0 8.59525013 30.777872086 8.59525013
205 3 0.0 8.59525013 30.777872086 25.785751343
206 3 0.0 25.785751343 3.60312891 8.59525013
207 3 0.0 25.785751343 30.777872086 8.59525013
208 3 0.0 8.59525013 3.60312891 25.785751343
209 3 0.0 8.59525013 25.785751343 20.793628693
210 3 0.0 25.785751343 8.59525013 13.587371826
211 3 0.0 25.785751343 8.59525013 20.793628693
212 3 0.0 8.59525013 25.785751343 13.587371826
213 3 0.0 25.785751343 25.785751343 13.587371826
214 3 0.0 8.59525013 8.59525013 20.793628693
215 3 0.0 8.59525013 8.59525013 13.587371826
216 3 0.0 25.785751343 25.785751343 20.793628693
217 3 0.0 8.59525013 20.793628693 25.785751343
218 3 0.0 25.785751343 13.587371826 8.59525013
219 3 0.0 25.785751343 20.793628693 8.59525013
220 3 0.0 8.59525013 13.587371826 25.785751343
221 3 0.0 8.59525013 13.587371826 8.59525013
222 3 0.0 25.785751343 20.793628693 25.785751343
223 3 0.0 25.785751343 13.587371826 25.785751343
224 3 0.0 8.59525013 20.793628693 8.59525013
225 3 0.0 20.793628693 8.59525013 25.785751343
226 3 0.0 13.587371826 25.785751343 8.59525013
227 3 0.0 20.793628693 25.785751343 8.59525013
228 3 0.0 13.587371826 8.59525013 25.785751343
229 3 0.0 13.587371826 25.785751343 25.785751343
230 3 0.0 20.793628693 8.59525013 8.59525013
231 3 0.0 13.587371826 8.59525013 8.59525013
232 3 0.0 20.793628693 25.785751343 25.785751343
233 3 0.0 7.752915859 7.752915859 2.865083456
234 3 0.0 26.62808609 26.62808609 31.515918732
235 3 0.0 26.62808609 26.62808609 2.865083456
236 3 0.0 7.752915859 7.752915859 31.515918732
237 3 0.0 26.62808609 7.752915859 31.515918732
238 3 0.0 7.752915859 26.62808609 2.865083456
239 3 0.0 7.752915859 26.62808609 31.515918732
240 3 0.0 26.62808609 7.752915859 2.865083456
241 3 0.0 2.865083456 7.752915859 7.752915859
242 3 0.0 31.515918732 26.62808609 26.62808609
243 3 0.0 2.865083456 26.62808609 26.62808609
244 3 0.0 31.515918732 7.752915859 7.752915859
245 3 0.0 31.515918732 26.62808609 7.752915859
246 3 0.0 2.865083456 7.752915859 26.62808609
247 3 0.0 31.515918732 7.752915859 26.62808609
248 3 0.0 2.865083456 26.62808609 7.752915859
249 3 0.0 7.752915859 2.865083456 7.752915859
250 3 0.0 26.62808609 31.515918732 26.62808609
251 3 0.0 26.62808609 2.865083456 26.62808609
252 3 0.0 7.752915859 31.515918732 7.752915859
253 3 0.0 7.752915859 31.515918732 26.62808609
254 3 0.0 26.62808609 2.865083456 7.752915859
255 3 0.0 26.62808609 31.515918732 7.752915859
256 3 0.0 7.752915859 2.865083456 26.62808609
257 3 0.0 7.752915859 24.943414688 20.055582047
258 3 0.0 26.62808609 9.437584877 14.325416565
259 3 0.0 26.62808609 9.437584877 20.055582047
260 3 0.0 7.752915859 24.943414688 14.325416565
261 3 0.0 26.62808609 24.943414688 14.325416565
262 3 0.0 7.752915859 9.437584877 20.055582047
263 3 0.0 7.752915859 9.437584877 14.325416565
264 3 0.0 26.62808609 24.943414688 20.055582047
265 3 0.0 2.865083456 24.943414688 24.943414688
266 3 0.0 31.515918732 9.437584877 9.437584877
267 3 0.0 2.865083456 9.437584877 9.437584877
268 3 0.0 31.515918732 24.943414688 24.943414688
269 3 0.0 31.515918732 9.437584877 24.943414688
270 3 0.0 2.865083456 24.943414688 9.437584877
271 3 0.0 31.515918732 24.943414688 9.437584877
272 3 0.0 2.865083456 9.437584877 24.943414688
273 3 0.0 7.752915859 20.055582047 24.943414688
274 3 0.0 26.62808609 14.325416565 9.437584877
275 3 0.0 26.62808609 20.055582047 9.437584877
276 3 0.0 7.752915859 14.325416565 24.943414688
277 3 0.0 7.752915859 14.325416565 9.437584877
278 3 0.0 26.62808609 20.055582047 24.943414688
279 3 0.0 26.62808609 14.325416565 24.943414688
280 3 0.0 7.752915859 20.055582047 9.437584877
281 3 0.0 24.943414688 7.752915859 20.055582047
282 3 0.0 9.437584877 26.62808609 14.325416565
283 3 0.0 9.437584877 26.62808609 20.055582047
284 3 0.0 24.943414688 7.752915859 14.325416565
285 3 0.0 9.437584877 7.752915859 14.325416565
286 3 0.0 24.943414688 26.62808609 20.055582047
287 3 0.0 24.943414688 26.62808609 14.325416565
288 3 0.0 9.437584877 7.752915859 20.055582047
289 3 0.0 20.055582047 7.752915859 24.943414688
290 3 0.0 14.325416565 26.62808609 9.437584877
291 3 0.0 20.055582047 26.62808609 9.437584877
292 3 0.0 14.325416565 7.752915859 24.943414688
293 3 0.0 14.325416565 26.62808609 24.943414688
294 3 0.0 20.055582047 7.752915859 9.437584877
295 3 0.0 14.325416565 7.752915859 9.437584877
296 3 0.0 20.055582047 26.62808609 24.943414688
297 3 0.0 24.943414688 2.865083456 24.943414688
298 3 0.0 9.437584877 31.515918732 9.437584877
299 3 0.0 9.437584877 2.865083456 9.437584877
300 3 0.0 24.943414688 31.515918732 24.943414688
301 3 0.0 24.943414688 31.515918732 9.437584877
302 3 0.0 9.437584877 2.865083456 24.943414688
303 3 0.0 9.437584877 31.515918732 24.943414688
304 3 0.0 24.943414688 2.865083456 9.437584877
305 3 0.0 24.943414688 24.943414688 2.865083456
306 3 0.0 9.437584877 9.437584877 31.515918732
307 3 0.0 9.437584877 9.437584877 2.865083456
308 3 0.0 24.943414688 24.943414688 31.515918732
309 3 0.0 9.437584877 24.943414688 31.515918732
310 3 0.0 24.943414688 9.437584877 2.865083456
311 3 0.0 24.943414688 9.437584877 31.515918732
312 3 0.0 9.437584877 24.943414688 2.865083456
313 3 0.0 20.055582047 24.943414688 7.752915859
314 3 0.0 14.325416565 9.437584877 26.62808609
315 3 0.0 20.055582047 9.437584877 26.62808609
316 3 0.0 14.325416565 24.943414688 7.752915859
317 3 0.0 14.325416565 9.437584877 7.752915859
318 3 0.0 20.055582047 24.943414688 26.62808609
319 3 0.0 14.325416565 24.943414688 26.62808609
320 3 0.0 20.055582047 9.437584877 7.752915859
321 3 0.0 24.943414688 20.055582047 7.752915859
322 3 0.0 9.437584877 14.325416565 26.62808609
323 3 0.0 9.437584877 20.055582047 26.62808609
324 3 0.0 24.943414688 14.325416565 7.752915859
325 3 0.0 24.943414688 14.325416565 26.62808609
326 3 0.0 9.437584877 20.055582047 7.752915859
327 3 0.0 9.437584877 14.325416565 7.752915859
328 3 0.0 24.943414688 20.055582047 26.62808609
329 3 0.0 7.794172764 7.794172764 1.471506834
330 3 0.0 26.586828232 26.586828232 32.909492493
331 3 0.0 26.586828232 26.586828232 1.471506834
332 3 0.0 7.794172764 7.794172764 32.909492493
333 3 0.0 26.586828232 7.794172764 32.909492493
334 3 0.0 7.794172764 26.586828232 1.471506834
335 3 0.0 7.794172764 26.586828232 32.909492493
336 3 0.0 26.586828232 7.794172764 1.471506834
337 3 0.0 1.471506834 7.794172764 7.794172764
338 3 0.0 32.909492493 26.586828232 26.586828232
339 3 0.0 1.471506834 26.586828232 26.586828232
340 3 0.0 32.909492493 7.794172764 7.794172764
341 3 0.0 32.909492493 26.586828232 7.794172764
342 3 0.0 1.471506834 7.794172764 26.586828232
343 3 0.0 32.909492493 7.794172764 26.586828232
344 3 0.0 1.471506834 26.586828232 7.794172764
345 3 0.0 7.794172764 1.471506834 7.794172764
346 3 0.0 26.586828232 32.909492493 26.586828232
347 3 0.0 26.586828232 1.471506834 26.586828232
348 3 0.0 7.794172764 32.909492493 7.794172764
349 3 0.0 7.794172764 32.909492493 26.586828232
350 3 0.0 26.586828232 1.471506834 7.794172764
351 3 0.0 26.586828232 32.909492493 7.794172764
352 3 0.0 7.794172764 1.471506834 26.586828232
353 3 0.0 7.794172764 24.984672546 18.662008286
354 3 0.0 26.586828232 9.396327019 15.718993187
355 3 0.0 26.586828232 9.396327019 18.662008286
356 3 0.0 7.794172764 24.984672546 15.718993187
357 3 0.0 26.586828232 24.984672546 15.718993187
358 3 0.0 7.794172764 9.396327019 18.662008286
359 3 0.0 7.794172764 9.396327019 15.718993187
360 3 0.0 26.586828232 24.984672546 18.662008286
361 3 0.0 1.471506834 24.984672546 24.984672546
362 3 0.0 32.909492493 9.396327019 9.396327019
363 3 0.0 1.471506834 9.396327019 9.396327019
364 3 0.0 32.909492493 24.984672546 24.984672546
365 3 0.0 32.909492493 9.396327019 24.984672546
366 3 0.0 1.471506834 24.984672546 9.396327019
367 3 0.0 32.909492493 24.984672546 9.396327019
368 3 0.0 1.471506834 9.396327019 24.984672546
369 3 0.0 7.794172764 18.662008286 24.984672546
370 3 0.0 26.586828232 15.718993187 9.396327019
371 3 0.0 26.586828232 18.662008286 9.396327019
372 3 0.0 7.794172764 15.718993187 24.984672546
373 3 0.0 7.794172764 15.718993187 9.396327019
374 3 0.0 26.586828232 18.662008286 24.984672546
375 3 0.0 26.586828232 15.718993187 24.984672546
376 3 0.0 7.794172764 18.662008286 9.396327019
377 3 0.0 24.984672546 7.794172764 18.662008286
378 3 0.0 9.396327019 26.586828232 15.718993187
379 3 0.0 9.396327019 26.586828232 18.662008286
380 3 0.0 24.984672546 7.794172764 15.718993187
381 3 0.0 9.396327019 7.794172764 15.718993187
382 3 0.0 24.984672546 26.586828232 18.662008286
383 3 0.0 24.984672546 26.586828232 15.718993187
384 3 0.0 9.396327019 7.794172764 18.662008286
385 3 0.0 18.662008286 7.794172764 24.984672546
386 3 0.0 15.718993187 26.586828232 9.396327019
387 3 0.0 18.662008286 26.586828232 9.396327019
388 3 0.0 15.718993187 7.794172764 24.984672546
389 3 0.0 15.718993187 26.586828232 24.984672546
390 3 0.0 18.662008286 7.794172764 9.396327019
391 3 0.0 15.718993187 7.794172764 9.396327019
392 3 0.0 18.662008286 26.586828232 24.984672546
393 3 0.0 24.984672546 1.471506834 24.984672546
394 3 0.0 9.396327019 32.909492493 9.396327019
395 3 0.0 9.396327019 1.471506834 9.396327019
396 3 0.0 24.984672546 32.909492493 24.984672546
397 3 0.0 24.984672546 32.909492493 9.396327019
398 3 0.0 9.396327019 1.471506834 24.984672546
399 3 0.0 9.396327019 32.909492493 24.984672546
400 3 0.0 24.984672546 1.471506834 9.396327019
401 3 0.0 24.984672546 24.984672546 1.471506834
402 3 0.0 9.396327019 9.396327019 32.909492493
403 3 0.0 9.396327019 9.396327019 1.471506834
404 3 0.0 24.984672546 24.984672546 32.909492493
405 3 0.0 9.396327019 24.984672546 32.909492493
406 3 0.0 24.984672546 9.396327019 1.471506834
407 3 0.0 24.984672546 9.396327019 32.909492493
408 3 0.0 9.396327019 24.984672546 1.471506834
409 3 0.0 18.662008286 24.984672546 7.794172764
410 3 0.0 15.718993187 9.396327019 26.586828232
411 3 0.0 18.662008286 9.396327019 26.586828232
412 3 0.0 15.718993187 24.984672546 7.794172764
413 3 0.0 15.718993187 9.396327019 7.794172764
414 3 0.0 18.662008286 24.984672546 26.586828232
415 3 0.0 15.718993187 24.984672546 26.586828232
416 3 0.0 18.662008286 9.396327019 7.794172764
417 3 0.0 24.984672546 18.662008286 7.794172764
418 3 0.0 9.396327019 15.718993187 26.586828232
419 3 0.0 9.396327019 18.662008286 26.586828232
420 3 0.0 24.984672546 15.718993187 7.794172764
421 3 0.0 24.984672546 15.718993187 26.586828232
422 3 0.0 9.396327019 18.662008286 7.794172764
423 3 0.0 9.396327019 15.718993187 7.794172764
424 3 0.0 24.984672546 18.662008286 26.586828232
425 3 0.0 8.59525013 8.59525013 0.660115242
426 3 0.0 25.785751343 25.785751343 33.72088623
427 3 0.0 25.785751343 25.785751343 0.660115242
428 3 0.0 8.59525013 8.59525013 33.72088623
429 3 0.0 25.785751343 8.59525013 33.72088623
430 3 0.0 8.59525013 25.785751343 0.660115242
431 3 0.0 8.59525013 25.785751343 33.72088623
432 3 0.0 25.785751343 8.59525013 0.660115242
433 3 0.0 0.660115242 8.59525013 8.59525013
434 3 0.0 33.72088623 25.785751343 25.785751343
435 3 0.0 0.660115242 25.785751343 25.785751343
436 3 0.0 33.72088623 8.59525013 8.59525013
437 3 0.0 33.72088623 25.785751343 8.59525013
438 3 0.0 0.660115242 8.59525013 25.785751343
439 3 0.0 33.72088623 8.59525013 25.785751343
440 3 0.0 0.660115242 25.785751343 8.59525013
441 3 0.0 8.59525013 0.660115242 8.59525013
442 3 0.0 25.785751343 33.72088623 25.785751343
443 3 0.0 25.785751343 0.660115242 25.785751343
444 3 0.0 8.59525013 33.72088623 8.59525013
445 3 0.0 8.59525013 33.72088623 25.785751343
446 3 0.0 25.785751343 0.660115242 8.59525013
447 3 0.0 25.785751343 33.72088623 8.59525013
448 3 0.0 8.59525013 0.660115242 25.785751343
449 3 0.0 8.59525013 25.785751343 17.850616455
450 3 0.0 25.785751343 8.59525013 16.530385971
451 3 0.0 25.785751343 8.59525013 17.850616455
452 3 0.0 8.59525013 25.785751343 16.530385971
453 3 0.0 25.785751343 25.785751343 16.530385971
454 3 0.0 8.59525013 8.59525013 17.850616455
455 3 0.0 8.59525013 8.59525013 16.530385971
456 3 0.0 25.785751343 25.785751343 17.850616455
457 3 0.0 8.59525013 17.850616455 25.785751343
458 3 0.0 25.785751343 16.530385971 8.59525013
459 3 0.0 25.785751343 17.850616455 8.59525013
460 3 0.0 8.59525013 16.530385971 25.785751343
461 3 0.0 8.59525013 16.530385971 8.59525013
462 3 0.0 25.785751343 17.850616455 25.785751343
463 3 0.0 25.785751343 16.530385971 25.785751343
464 3 0.0 8.59525013 17.850616455 8.59525013
465 3 0.0 17.850616455 8.59525013 25.785751343
466 3 0.0 16.530385971 25.785751343 8.59525013
467 3 0.0 17.850616455 25.785751343 8.59525013
468 3 0.0 16.530385971 8.59525013 25.785751343
469 3 0.0 16.530385971 25.785751343 25.785751343
470 3 0.0 17.850616455 8.59525013 8.59525013
471 3 0.0 16.530385971 8.59525013 8.59525013
472 3 0.0 17.850616455 25.785751343 25.785751343
473 3 0.0 6.972466946 6.972466946 0.69793433
474 3 0.0 27.408533096 27.408533096 33.683063507
475 3 0.0 27.408533096 27.408533096 0.69793433
476 3 0.0 6.972466946 6.972466946 33.683063507
477 3 0.0 27.408533096 6.972466946 33.683063507
478 3 0.0 6.972466946 27.408533096 0.69793433
479 3 0.0 6.972466946 27.408533096 33.683063507
480 3 0.0 27.408533096 6.972466946 0.69793433
481 3 0.0 0.69793433 6.972466946 6.972466946
482 3 0.0 33.683063507 27.408533096 27.408533096
483 3 0.0 0.69793433 27.408533096 27.408533096
484 3 0.0 33.683063507 6.972466946 6.972466946
485 3 0.0 33.683063507 27.408533096 6.972466946
486 3 0.0 0.69793433 6.972466946 27.408533096
487 3 0.0 33.683063507 6.972466946 27.408533096
488 3 0.0 0.69793433 27.408533096 6.972466946
489 3 0.0 6.972466946 0.69793433 6.972466946
490 3 0.0 27.408533096 33.683063507 27.408533096
491 3 0.0 27.408533096 0.69793433 27.408533096
492 3 0.0 6.972466946 33.683063507 6.972466946
493 3 0.0 6.972466946 33.683063507 27.408533096
494 3 0.0 27.408533096 0.69793433 6.972466946
495 3 0.0 27.408533096 33.683063507 6.972466946
496 3 0.0 6.972466946 0.69793433 27.408533096
497 3 0.0 6.972466946 24.162967682 17.888435364
498 3 0.0 27.408533096 10.218032837 16.492565155
499 3 0.0 27.408533096 10.218032837 17.888435364
500 3 0.0 6.972466946 24.162967682 16.492565155
501 3 0.0 27.408533096 24.162967682 16.492565155
502 3 0.0 6.972466946 10.218032837 17.888435364
503 3 0.0 6.972466946 10.218032837 16.492565155
504 3 0.0 27.408533096 24.162967682 17.888435364
505 3 0.0 0.69793433 24.162967682 24.162967682
506 3 0.0 33.683063507 10.218032837 10.218032837
507 3 0.0 0.69793433 10.218032837 10.218032837
508 3 0.0 33.683063507 24.162967682 24.162967682
509 3 0.0 33.683063507 10.218032837 24.162967682
510 3 0.0 0.69793433 24.162967682 10.218032837
511 3 0.0 33.683063507 24.162967682 10.218032837
512 3 0.0 0.69793433 10.218032837 24.162967682
513 3 0.0 6.972466946 17.888435364 24.162967682
514 3 0.0 27.408533096 16.492565155 10.218032837
515 3 0.0 27.408533096 17.888435364 10.218032837
516 3 0.0 6.972466946 16.492565155 24.162967682
517 3 0.0 6.972466946 16.492565155 10.218032837
518 3 0.0 27.408533096 17.888435364 24.162967682
519 3 0.0 27.408533096 16.492565155 24.162967682
520 3 0.0 6.972466946 17.888435364 10.218032837
521 3 0.0 24.162967682 6.972466946 17.888435364
522 3 0.0 10.218032837 27.408533096 16.492565155
523 3 0.0 10.218032837 27.408533096 17.888435364
524 3 0.0 24.162967682 6.972466946 16.492565155
525 3 0.0 10.218032837 6.972466946 16.492565155
526 3 0.0 24.162967682 27.408533096 17.888435364
527 3 0.0 24.162967682 27.408533096 16.492565155
528 3 0.0 10.218032837 6.972466946 17.888435364
529 3 0.0 17.888435364 6.972466946 24.162967682
530 3 0.0 16.492565155 27.408533096 10.218032837
531 3 0.0 17.888435364 27.408533096 10.218032837
532 3 0.0 16.492565155 6.972466946 24.162967682
533 3 0.0 16.492565155 27.408533096 24.162967682
534 3 0.0 17.888435364 6.972466946 10.218032837
535 3 0.0 16.492565155 6.972466946 10.218032837
536 3 0.0 17.888435364 27.408533096 24.162967682
537 3 0.0 24.162967682 0.69793433 24.162967682
538 3 0.0 10.218032837 33.683063507 10.218032837
539 3 0.0 10.218032837 0.69793433 10.218032837
540 3 0.0 24.162967682 33.683063507 24.162967682
541 3 0.0 24.162967682 33.683063507 10.218032837
542 3 0.0 10.218032837 0.69793433 24.162967682
543 3 0.0 10.218032837 33.683063507 24.162967682
544 3 0.0 24.162967682 0.69793433 10.218032837
545 3 0.0 24.162967682 24.162967682 0.69793433
546 3 0.0 10.218032837 10.218032837 33.683063507
547 3 0.0 10.218032837 10.218032837 0.69793433
548 3 0.0 24.162967682 24.162967682 33.683063507
549 3 0.0 10.218032837 24.162967682 33.683063507
550 3 0.0 24.162967682 10.218032837 0.69793433
551 3 0.0 24.162967682 10.218032837 33.683063507
552 3 0.0 10.218032837 24.162967682 0.69793433
553 3 0.0 17.888435364 24.162967682 6.972466946
554 3 0.0 16.492565155 10.218032837 27.408533096
555 3 0.0 17.888435364 10.218032837 27.408533096
556 3 0.0 16.492565155 24.162967682 6.972466946
557 3 0.0 16.492565155 10.218032837 6.972466946
558 3 0.0 17.888435364 24.162967682 27.408533096
559 3 0.0 16.492565155 24.162967682 27.408533096
560 3 0.0 17.888435364 10.218032837 6.972466946
561 3 0.0 24.162967682 17.888435364 6.972466946
562 3 0.0 10.218032837 16.492565155 27.408533096
563 3 0.0 10.218032837 17.888435364 27.408533096
564 3 0.0 24.162967682 16.492565155 6.972466946
565 3 0.0 24.162967682 16.492565155 27.408533096
566 3 0.0 10.218032837 17.888435364 6.972466946
567 3 0.0 10.218032837 16.492565155 6.972466946
568 3 0.0 24.162967682 17.888435364 27.408533096
569 4 0.0 7.171876907 7.171876907 3.307452202
570 4 0.0 27.209123611 27.209123611 31.073549271
571 4 0.0 27.209123611 27.209123611 3.307452202
572 4 0.0 7.171876907 7.171876907 31.073549271
573 4 0.0 27.209123611 7.171876907 31.073549271
574 4 0.0 7.171876907 27.209123611 3.307452202
575 4 0.0 7.171876907 27.209123611 31.073549271
576 4 0.0 27.209123611 7.171876907 3.307452202
577 4 0.0 3.307452202 7.171876907 7.171876907
578 4 0.0 31.073549271 27.209123611 27.209123611
579 4 0.0 3.307452202 27.209123611 27.209123611
580 4 0.0 31.073549271 7.171876907 7.171876907
581 4 0.0 31.073549271 27.209123611 7.171876907
582 4 0.0 3.307452202 7.171876907 27.209123611
583 4 0.0 31.073549271 7.171876907 27.209123611
584 4 0.0 3.307452202 27.209123611 7.171876907
585 4 0.0 7.171876907 3.307452202 7.171876907
586 4 0.0 27.209123611 31.073549271 27.209123611
587 4 0.0 27.209123611 3.307452202 27.209123611
588 4 0.0 7.171876907 31.073549271 7.171876907
589 4 0.0 7.171876907 31.073549271 27.209123611
590 4 0.0 27.209123611 3.307452202 7.171876907
591 4 0.0 27.209123611 31.073549271 7.171876907
592 4 0.0 7.171876907 3.307452202 27.209123611
593 4 0.0 7.171876907 24.362377167 20.497951508
594 4 0.0 27.209123611 10.018624306 13.883048058
595 4 0.0 27.209123611 10.018624306 20.497951508
596 4 0.0 7.171876907 24.362377167 13.883048058
597 4 0.0 27.209123611 24.362377167 13.883048058
598 4 0.0 7.171876907 10.018624306 20.497951508
599 4 0.0 7.171876907 10.018624306 13.883048058
600 4 0.0 27.209123611 24.362377167 20.497951508
601 4 0.0 3.307452202 24.362377167 24.362377167
602 4 0.0 31.073549271 10.018624306 10.018624306
603 4 0.0 3.307452202 10.018624306 10.018624306
604 4 0.0 31.073549271 24.362377167 24.362377167
605 4 0.0 31.073549271 10.018624306 24.362377167
606 4 0.0 3.307452202 24.362377167 10.018624306
607 4 0.0 31.073549271 24.362377167 10.018624306
608 4 0.0 3.307452202 10.018624306 24.362377167
609 4 0.0 7.171876907 20.497951508 24.362377167
610 4 0.0 27.209123611 13.883048058 10.018624306
611 4 0.0 27.209123611 20.497951508 10.018624306
612 4 0.0 7.171876907 13.883048058 24.362377167
613 4 0.0 7.171876907 13.883048058 10.018624306
614 4 0.0 27.209123611 20.497951508 24.362377167
615 4 0.0 27.209123611 13.883048058 24.362377167
616 4 0.0 7.171876907 20.497951508 10.018624306
617 4 0.0 24.362377167 7.171876907 20.497951508
618 4 0.0 10.018624306 27.209123611 13.883048058