LAMMPS (10 Aug 2015)
# Remember that LAMMPS 2005 uses only single words as commands, e.g. bond_style
# This script is for lmp_linux executable (2011 64 bit)

# (1) Initialization
units                   real
dimension               3
boundary                p p p
newton                  on
atom_style              full
#processors             2 2 2

kspace_style   		    pppm 1.0e-6
pair_style              lj/cut/coul/long 12.0 12.0

bond_style              harmonic
angle_style             harmonic
dihedral_style          harmonic
improper_style          cvff

# (2) Atom definition: read the .lammps05 file as data.class2
read_data               MgO-Water-close-LAMMPS.data
  orthogonal box = (-1.05362 -1.03472 -126.019) to (20.0014 20.0203 145.036)
  1 by 1 by 1 MPI processor grid
  reading atoms ...
  1003 atoms
  scanning bonds ...
  2 = max bonds/atom
  scanning angles ...
  1 = max angles/atom
  reading bonds ...
  2 bonds
  reading angles ...
  1 angles
  2 = max # of 1-2 neighbors
  1 = max # of 1-3 neighbors
  1 = max # of 1-4 neighbors
  2 = max # of special neighbors
#change_box      	    all triclinic

# (3) Settings
neighbor                2.0 bin
neigh_modify 		    every 2 delay 10 check yes page 1000000 one 40000
special_bonds           lj/coul 0.0 0.0 1.0
  2 = max # of 1-2 neighbors
  1 = max # of 1-3 neighbors
  2 = max # of special neighbors

# (4) Minimization: con.grad. (cg)/steep.desc. (sd, somewt. more stable)
thermo_style            custom step temp pe ke etotal enthalpy evdwl ecoul epair ebond eangle edihed eimp emol elong etail lx ly lz cella cellb cellc cellalpha cellbeta cellgamma vol density pxx pyy pzz pxy pxz pyz press
thermo                  5
dump                    0 all atom 5 whole.min
minimize                0.00000001 0.00000001 50000 50000
WARNING: Resetting reneighboring criteria during minimization (../min.cpp:168)
PPPM initialization ...
  G vector (1/distance) = 0.278917
  grid = 30 30 192
  stencil order = 5
  estimated absolute RMS force accuracy = 0.000374795
  estimated relative force accuracy = 1.12868e-06
  using double precision FFTs
  3d grid and FFT values/proc = 272431 172800
Neighbor list info ...
  1 neighbor list requests
  update every 1 steps, delay 0 steps, check yes
  master list distance cutoff = 14
  ghost atom cutoff = 14
Memory usage per processor = 33.7159 Mbytes
Step Temp PotEng KinEng TotEng Enthalpy E_vdwl E_coul E_pair E_bond E_angle E_dihed E_impro E_mol E_long E_tail Lx Ly Lz Cella Cellb Cellc CellAlpha CellBeta CellGamma Volume Density Pxx Pyy Pzz Pxy Pxz Pyz Press 
       0            0   -148423.28            0   -148423.28   -153342.09    5278.6845   -94937.112   -148423.28 1.8319784e-08 7.0966284e-07            0            0 7.2798262e-07   -58764.854            0       21.055       21.055      271.055       21.055       21.055      271.055           90           90           90    120162.21   0.27873511   -3319.1471   -3319.2178   -1782.1232   -14.139238   -7.2234715   -7.1346657   -2806.8294 
       5            0   -148454.14            0   -148454.14   -153096.89    5339.4963   -95030.349   -148454.47    0.1758158   0.15467423            0            0   0.33049003   -58763.623            0       21.055       21.055      271.055       21.055       21.055      271.055           90           90           90    120162.21   0.27873511   -3278.8219   -3278.6381   -1390.4425    1.5528522  -0.63253453  -0.78402404   -2649.3008 
      10            0   -148459.87            0   -148459.87   -152692.81    5426.4703   -95123.372   -148460.41   0.34210493   0.19649008            0            0   0.53859501   -58763.509            0       21.055       21.055      271.055       21.055       21.055      271.055           90           90           90    120162.21   0.27873511   -3182.6315   -3184.9615    -878.7653    1.4058517   -1.5038622    0.6462349   -2415.4528 
      15            0    -148463.1            0    -148463.1   -152255.19    5519.5577    -95219.04   -148463.41   0.26116416  0.052322957            0            0   0.31348712   -58763.927            0       21.055       21.055      271.055       21.055       21.055      271.055           90           90           90    120162.21   0.27873511    -3082.673   -3083.1577   -325.83615    1.7972099  -0.86891678  -0.33916572    -2163.889 
      20            0   -148463.45            0   -148463.45   -152147.34    5543.0269   -95243.056   -148463.89   0.35889742  0.083544568            0            0   0.44244198    -58763.86            0       21.055       21.055      271.055       21.055       21.055      271.055           90           90           90    120162.21   0.27873511   -3059.5265   -3060.1168   -186.79492     2.530152   -0.2843497   0.31411273   -2102.1461 
      25            0   -148463.57            0   -148463.57   -152069.76    5559.2097   -95259.226   -148463.94   0.28285021  0.088590813            0            0   0.37144102   -58763.923            0       21.055       21.055      271.055       21.055       21.055      271.055           90           90           90    120162.21   0.27873511   -3041.0011   -3041.6993   -90.719242    1.7407079  -0.82653071  -0.12216909   -2057.8065 
      30            0   -148463.61            0   -148463.61   -152033.72    5567.2743   -95267.455   -148464.08   0.37402046  0.097473874            0            0   0.47149434     -58763.9            0       21.055       21.055      271.055       21.055       21.055      271.055           90           90           90    120162.21   0.27873511   -3033.7291   -3033.7455   -44.179006    2.2917345  0.048826314  0.074588796   -2037.2178 
Loop time of 2.90835 on 1 procs for 30 steps with 1003 atoms

Minimization stats:
  Stopping criterion = energy tolerance
  Energy initial, next-to-last, final = 
        -148423.280832     -148463.608737     -148463.609067
  Force two-norm initial, final = 211.003 1.60614
  Force max component initial, final = 164.776 0.79679
  Final line search alpha, max atom move = 0.273053 0.217566
  Iterations, force evaluations = 30 58

Pair  time (%) = 0.667086 (22.9369)
Bond  time (%) = 0.000319958 (0.0110014)
Kspce time (%) = 2.23172 (76.7351)
Neigh time (%) = 0 (0)
Comm  time (%) = 0.00207973 (0.0715088)
Outpt time (%) = 0.00445604 (0.153216)
Other time (%) = 0.00268292 (0.0922491)

Nlocal:    1003 ave 1003 max 1003 min
Histogram: 1 0 0 0 0 0 0 0 0 0
Nghost:    4775 ave 4775 max 4775 min
Histogram: 1 0 0 0 0 0 0 0 0 0
Neighs:    466407 ave 466407 max 466407 min
Histogram: 1 0 0 0 0 0 0 0 0 0

Total # of neighbors = 466407
Ave neighs/atom = 465.012
Ave special neighs/atom = 0.00598205
Neighbor list builds = 0
Dangerous builds = 0
undump                  0
reset_timestep          0

# (5) NPT Dynamics 1 (pressure = 1 atm in x, y, and z directions of an orthogonal box)
timestep                1.0
velocity                all create 170 4928459 rot yes dist gaussian
fix                     7 all nvt temp 170.0 170.0 100.0 #aniso 1.0 1.0 500

# Full stress tensor incl. xy, yz, xz requires declaration as a triclinic box with tilt factors
thermo_style            custom step temp pe ke etotal enthalpy evdwl ecoul epair ebond eangle edihed eimp emol elong etail lx ly lz cella cellb cellc cellalpha cellbeta cellgamma vol density pxx pyy pzz pxy pxz pyz press
thermo                  50
dump			        1 all atom 2000 trajectory_arc.lammpstrj

run                     200000
PPPM initialization ...
  G vector (1/distance) = 0.278917
  grid = 30 30 192
  stencil order = 5
  estimated absolute RMS force accuracy = 0.000374795
  estimated relative force accuracy = 1.12868e-06
  using double precision FFTs
  3d grid and FFT values/proc = 272431 172800
Neighbor list info ...
  1 neighbor list requests
  update every 2 steps, delay 10 steps, check yes
  master list distance cutoff = 14
  ghost atom cutoff = 14
Memory usage per processor = 32.5909 Mbytes
Step Temp PotEng KinEng TotEng Enthalpy E_vdwl E_coul E_pair E_bond E_angle E_dihed E_impro E_mol E_long E_tail Lx Ly Lz Cella Cellb Cellc CellAlpha CellBeta CellGamma Volume Density Pxx Pyy Pzz Pxy Pxz Pyz Press 
       0          170   -148463.61    507.75118   -147955.86   -151187.46    5567.2743   -95267.455   -148464.08   0.37402046  0.097473874            0            0   0.47149434     -58763.9            0       21.055       21.055      271.055       21.055       21.055      271.055           90           90           90    120162.21   0.27873511   -2842.8522   -2838.1288    148.80581   -1.0050667  -0.36388278    10.077931   -1844.0584 
      50    86.587827   -148197.62    258.61807   -147939.01   -150555.78    5754.4504   -95188.956   -148198.08   0.44864137 0.0065210398            0            0   0.45516241   -58763.573            0       21.055       21.055      271.055       21.055       21.055      271.055           90           90           90    120162.21   0.27873511   -2374.7679   -2321.5595    216.67818    4.2503906   -39.077411    12.614223   -1493.2164 
     100    89.375947    -148175.8    266.94555   -147908.85   -150788.43    5694.3953   -95108.879    -148176.9   0.63106853    0.4761864            0            0    1.1072549    -58762.42            0       21.055       21.055      271.055       21.055       21.055      271.055           90           90           90    120162.21   0.27873511   -2469.2056   -2420.2814    -40.05424   -4.0596595     8.296992   -5.1415127   -1643.1804 
     150     90.49212   -148141.24     270.2793   -147870.96   -150958.06    5655.1385   -95035.747   -148141.78   0.51192339  0.035191614            0            0     0.547115   -58761.174            0       21.055       21.055      271.055       21.055       21.055      271.055           90           90           90    120162.21   0.27873511   -2351.1881   -2425.7441   -507.87604    1.5451222   -1.0546981    21.507702   -1761.6027 
     200    99.225792   -148125.26    296.36478   -147828.89   -151106.95    5611.0963   -94977.295   -148126.05   0.57184055    0.2250295            0            0   0.79687005   -58759.855            0       21.055       21.055      271.055       21.055       21.055      271.055           90           90           90    120162.21   0.27873511     -2419.26   -2474.4049   -718.02714    2.9206906    7.1540595    67.992001    -1870.564 
     250    114.85272   -148125.32    343.03886   -147782.28   -150550.21    5715.0208   -95080.682   -148126.09   0.50249355   0.26892456            0            0   0.77141812   -58760.426            0       21.055       21.055      271.055       21.055       21.055      271.055           90           90           90    120162.21   0.27873511   -2205.6442   -2374.6067   -158.16902    8.7810532    9.9049625    107.02348   -1579.4733 
     300     125.5847   -148108.48    375.09283   -147733.39   -150182.68    5777.2054   -95124.604    -148108.8   0.25936978  0.066717341            0            0   0.32608712   -58761.406            0       21.055       21.055      271.055       21.055       21.055      271.055           90           90           90    120162.21   0.27873511   -2169.1717    -2215.091    191.32274   -1.7908695    1.0091818    71.654577   -1397.6467 
     350    138.11483   -148094.33    412.51746   -147681.81   -149662.98    5873.8736   -95207.895   -148095.74   0.41653074    0.9994231            0            0    1.4159538   -58761.722            0       21.055       21.055      271.055       21.055       21.055      271.055           90           90           90    120162.21   0.27873511   -2052.7086   -1964.1851     625.3433     9.614739  -0.18230755    37.504878   -1130.5168 
     400    135.85587   -148036.47    405.77047    -147630.7   -149440.39    5913.9317   -95189.646   -148037.33    0.8568597 0.00035373444            0            0   0.85721344   -58761.617            0       21.055       21.055      271.055       21.055       21.055      271.055           90           90           90    120162.21   0.27873511   -1989.9918   -1916.0631    808.06165    7.4330665    -15.50312      12.5642   -1032.6644 
     450    148.46734   -148021.65    443.43805   -147578.22   -149792.37     5824.067   -95086.731   -148022.52   0.78556066  0.077016633            0            0   0.86257729   -58759.853            0       21.055       21.055      271.055       21.055       21.055      271.055           90           90           90    120162.21   0.27873511   -2034.3777   -1955.5049    199.48365    3.9693329   -12.471128    -25.39197   -1263.4663 
     500    151.86953   -147982.86    453.59961   -147529.26   -150038.92    5762.8391   -94986.688   -147983.82   0.81906279    0.1434694            0            0   0.96253219   -58759.972            0       21.055       21.055      271.055       21.055       21.055      271.055           90           90           90    120162.21   0.27873511   -2006.1206   -2042.4867   -247.67305    5.0336754   -19.630609    7.6267104   -1432.0934 
     550    157.58302   -147954.25     470.6645   -147483.59   -150101.88    5737.5023   -94932.651   -147954.33  0.044185048  0.026817231            0            0  0.071002279   -58759.177            0       21.055       21.055      271.055       21.055       21.055      271.055           90           90           90    120162.21   0.27873511   -1994.0725   -1983.1857   -504.97902  -0.63443761    22.758208    8.8323689   -1494.0791 
     600    169.69668    -147949.6    506.84523   -147442.76   -150356.55    5672.1592    -94863.45   -147951.26    1.0318192   0.62483152            0            0    1.6566508   -58759.967            0       21.055       21.055      271.055       21.055       21.055      271.055           90           90           90    120162.21   0.27873511   -2082.7307   -2095.5806   -809.80388   -14.011638    36.820879   -34.620161   -1662.7051 
     650    171.01808      -147920    510.79195   -147409.21   -149790.22    5782.1527   -94943.193    -147920.2   0.17746518  0.024155759            0            0   0.20162094   -58759.163            0       21.055       21.055      271.055       21.055       21.055      271.055           90           90           90    120162.21   0.27873511   -1892.6955   -1882.2804   -301.06547    16.737769   -36.611863   -93.510203   -1358.6805 
     700    176.84408   -147915.51    528.19288   -147387.32      -149389    5865.2159   -95025.587   -147917.26    1.5626937   0.18417842            0            0    1.7468721    -58756.89            0       21.055       21.055      271.055       21.055       21.055      271.055           90           90           90    120162.21   0.27873511   -1801.5776   -1798.0504     172.9642    30.738868   -22.738188    -89.68189   -1142.2213 
     750    175.61536   -147906.25    524.52298   -147381.73   -149081.54    5929.8718   -95078.837   -147906.61   0.15909769   0.19682232            0            0      0.35592   -58757.644            0       21.055       21.055      271.055       21.055       21.055      271.055           90           90           90    120162.21   0.27873511   -1613.6006   -1750.1363    453.83775  -0.28573187   -45.232139   -105.74647   -969.96638 
     800    178.65718   -147926.95    533.60819   -147393.35   -148825.67    5988.0738   -95160.364   -147928.38    1.3737486  0.049242394            0            0     1.422991   -58756.087            0       21.055       21.055      271.055       21.055       21.055      271.055           90           90           90    120162.21   0.27873511   -1659.3422   -1655.1395    862.48883    20.670484   -4.7071928   -112.28383   -817.33095 
     850    176.33384    -147944.4    526.66893   -147417.73    -149229.9    5899.1392   -95084.958   -147944.59  0.023359265   0.16809726            0            0   0.19145653   -58758.772            0       21.055       21.055      271.055       21.055       21.055      271.055           90           90           90    120162.21   0.27873511    -1796.257   -1685.0546    379.05755    8.3771647    19.939351   -19.613713   -1034.0847 
     900    163.76335   -147935.69    489.12373   -147446.57   -149725.55    5812.9722   -94991.611   -147937.67    1.9368186  0.043799715            0            0    1.9806184   -58759.034            0       21.055       21.055      271.055       21.055       21.055      271.055           90           90           90    120162.21   0.27873511   -1937.6434   -1805.1175   -158.62285    7.5204437     34.77237    40.145445   -1300.4613 
     950    161.38963   -147952.48    482.03398   -147470.44   -149979.73     5759.646   -94953.426   -147952.76   0.26612551  0.020524305            0            0   0.28664982   -58758.983            0       21.055       21.055      271.055       21.055       21.055      271.055           90           90           90    120162.21   0.27873511    -1992.252   -1920.3453    -383.0475    8.6986742    19.937028     1.223401   -1431.8816 
    1000    154.99629   -147948.14    462.93853    -147485.2   -150340.12    5692.5441   -94883.199   -147949.41    1.1983367  0.071133448            0            0    1.2694702   -58758.756            0       21.055       21.055      271.055       21.055       21.055      271.055           90           90           90    120162.21   0.27873511   -2026.5028   -2062.7588   -798.06112    25.085972    -5.612435   -7.7877407   -1629.1076 
    1050    161.61959   -147971.28    482.72082   -147488.55   -150169.58    5721.3322    -94934.72   -147971.77   0.46907599  0.024374522            0            0   0.49345051   -58758.381            0       21.055       21.055      271.055       21.055       21.055      271.055           90           90           90    120162.21   0.27873511   -2070.2064   -2062.2617   -457.17704   -5.7838019    1.0788165    14.934751   -1529.8817 
    1100    163.29495   -147969.55    487.72473   -147481.83   -149478.42    5870.7021   -95081.976   -147970.57    0.7483643   0.26594402            0            0    1.0143083   -58759.295            0       21.055       21.055      271.055       21.055       21.055      271.055           90           90           90    120162.21   0.27873511   -1890.8672   -1848.0111    320.91852    2.5775182   -39.082125    27.942136   -1139.3199 
    1150    167.74354   -147968.11    501.01166    -147467.1    -149363.8    5885.8877   -95095.525   -147968.55   0.26293462   0.17465515            0            0   0.43758977   -58758.913            0       21.055       21.055      271.055       21.055       21.055      271.055           90           90           90    120162.21   0.27873511   -1805.0567   -1859.0127    417.11581    6.0423338   -5.6229188    57.793999   -1082.3178 
    1200    169.33814   -147953.97    505.77437    -147448.2   -149075.76    5945.6087     -95140.9   -147954.57   0.58238238   0.01539148            0            0   0.59777386    -58759.28            0       21.055       21.055      271.055       21.055       21.055      271.055           90           90           90    120162.21   0.27873511   -1814.0206   -1747.2463     775.0527     -6.80669    42.540714    131.81325   -928.73807 
    1250    172.84598   -147946.65    516.25146   -147430.39   -149143.57      5926.89   -95116.007   -147948.23    1.1077278   0.47199018            0            0     1.579718   -58759.109            0       21.055       21.055      271.055       21.055       21.055      271.055           90           90           90    120162.21   0.27873511   -1766.9706   -1726.3994    560.58394   -4.4012298    -2.263054    125.66566   -977.59537 
    1300    169.24121   -147924.04    505.48485   -147418.55    -149817.1    5782.7451    -94947.87   -147924.22   0.13438778   0.04761948            0            0   0.18200726   -58759.095            0       21.055       21.055      271.055       21.055       21.055      271.055           90           90           90    120162.21   0.27873511   -1871.4001   -1855.5354   -379.12912    -1.248677   -17.169819    38.540577   -1368.6882 
    1350    170.62855    -147922.7    509.62852   -147413.07   -149898.75    5766.2203   -94930.454   -147923.32    0.4809467   0.14203876            0            0   0.62298546   -58759.086            0       21.055       21.055      271.055       21.055       21.055      271.055           90           90           90    120162.21   0.27873511   -1960.5001    -1876.951    -417.7702    9.6078412   -22.403299   -14.441152   -1418.4071 
    1400    183.19811   -147959.48    547.17092   -147412.31   -150169.42    5694.2604   -94894.634   -147960.13   0.64378746   0.00243649            0            0   0.64622395   -58759.753            0       21.055       21.055      271.055       21.055       21.055      271.055           90           90           90    120162.21   0.27873511   -2045.0672    -2014.306   -660.52145    13.427161   -7.4976379   -2.5711341   -1573.2982 
    1450    175.50092   -147944.63    524.18118   -147420.45    -150054.4    5730.7094   -94916.492   -147945.48   0.81087241   0.03268941            0            0   0.84356182   -58759.695            0       21.055       21.055      271.055       21.055       21.055      271.055           90           90           90    120162.21   0.27873511   -1998.4174   -1954.2769   -556.35643    9.4894163   -7.7057978   -35.956677   -1503.0169 
    1500    169.74341   -147940.45    506.98482   -147433.46   -149479.04    5852.9287   -95035.167   -147940.55  0.011273543  0.092787715            0            0   0.10406126   -58758.313            0       21.055       21.055      271.055       21.055       21.055      271.055           90           90           90    120162.21   0.27873511   -1930.2906   -1747.7956    176.26802  -0.10575948     29.11551   -26.907879   -1167.2727 
    1550    169.73873   -147955.18    506.97082   -147448.21   -149189.67    5924.7144   -95123.528   -147956.76    1.5598392  0.025690845            0            0      1.58553    -58757.95            0       21.055       21.055      271.055       21.055       21.055      271.055           90           90           90    120162.21   0.27873511    -1718.545   -1789.2967    526.63103    11.926447    16.627796    16.663959   -993.73689 
    1600    168.77245   -147966.35    504.08477   -147462.27      -149249    5909.3295   -95118.194   -147967.07   0.71935703 0.0022921444            0            0   0.72164917   -58758.209            0       21.055       21.055      271.055       21.055       21.055      271.055           90           90           90    120162.21   0.27873511   -1763.8563   -1817.5495     522.6973   -13.818149    49.627758   -63.850939   -1019.5695 
    1650    166.41842   -147971.37    497.05382   -147474.31   -149253.66    5912.9893   -95127.243   -147972.66    1.0041387   0.29055807            0            0    1.2946968   -58758.407            0       21.055       21.055      271.055       21.055       21.055      271.055           90           90           90    120162.21   0.27873511    -1845.611   -1804.3133    603.86771    27.805587   -15.046757   -106.28357   -1015.3522 
    1700    166.86183   -147977.82    498.37819   -147479.44   -149748.86    5806.0331    -95024.63   -147978.04   0.12303729   0.10419051            0            0    0.2272278   -58759.446            0       21.055       21.055      271.055       21.055       21.055      271.055           90           90           90    120162.21   0.27873511   -1905.5961   -1871.8109   -107.60011   -5.6118324   -15.523315   -98.618428   -1295.0024 
    1750    169.49121   -147981.68    506.23156   -147475.45   -150122.15    5729.9732   -94954.898   -147983.23    1.5481981 0.0051897263            0            0    1.5533879   -58758.308            0       21.055       21.055      271.055       21.055       21.055      271.055           90           90           90    120162.21   0.27873511   -2019.2712   -2060.1804   -451.42553   -6.7288273      -23.592   -110.80861   -1510.2924 
    1800    165.36999   -147958.86    493.92241   -147464.94   -149995.71    5753.6021   -94955.873   -147959.72   0.19153009   0.66929182            0            0   0.86082191   -58757.448            0       21.055       21.055      271.055       21.055       21.055      271.055           90           90           90    120162.21   0.27873511   -1932.1625   -1986.1881   -414.06732   -12.040849   0.60907029   -61.951911   -1444.1393 
    1850    156.34449   -147917.06    466.96529    -147450.1   -150073.86    5742.0383   -94902.907   -147918.06   0.96842462  0.026025974            0            0   0.99445059   -58757.189            0       21.055       21.055      271.055       21.055       21.055      271.055           90           90           90    120162.21   0.27873511   -1921.3431   -1966.9906   -603.27038   -3.6433906    42.526188    11.702399   -1497.2014 
    1900    173.49925   -147949.41    518.20264   -147431.21    -149595.3    5828.0305   -95019.949   -147950.51   0.90579354   0.19459646            0            0      1.10039   -58758.595            0       21.055       21.055      271.055       21.055       21.055      271.055           90           90           90    120162.21   0.27873511   -1762.4141   -1941.2355   -1.0438669   -4.5712779    21.745502    82.560308   -1234.8978 
    1950    176.08833   -147944.06    525.93564   -147418.12   -149098.77     5933.871    -95120.03   -147944.99   0.89171723  0.034738373            0            0    0.9264556   -58758.826            0       21.055       21.055      271.055       21.055       21.055      271.055           90           90           90    120162.21   0.27873511    -1719.008   -1697.7536    539.67294    10.546444   -10.066218    43.390259   -959.02954 
    2000     180.1796   -147952.46    538.15532    -147414.3   -149272.82    5887.5749   -95080.432   -147952.58  0.089078895  0.035883421            0            0   0.12496232   -58759.723            0       21.055       21.055      271.055       21.055       21.055      271.055           90           90           90    120162.21   0.27873511   -1868.1237   -1762.8246    449.35099    12.217194   -27.853903     8.145067   -1060.5325 
    2050    179.70072   -147954.07    536.72503   -147417.35    -149168.2    5915.0568   -95110.058   -147954.48   0.21317131   0.19273248            0            0   0.40590378   -58759.477            0       21.055       21.055      271.055       21.055       21.055      271.055           90           90           90    120162.21   0.27873511   -1836.5101   -1647.7928    487.02061   -21.609286    4.6754158    50.268291   -999.09407 
    2100    178.12581    -147960.2    532.02113   -147428.17   -149624.39    5817.3769    -95019.77   -147961.14   0.85995245  0.083419189            0            0   0.94337164   -58758.746            0       21.055       21.055      271.055       21.055       21.055      271.055           90           90           90    120162.21   0.27873511   -1828.2556   -1968.4184    36.990014    3.6416759   -27.637324    28.631042    -1253.228 
    2150    169.86757   -147950.45    507.35564   -147443.09   -150075.62    5730.5025   -94923.966   -147950.98 0.00037156062    0.5324103            0            0   0.53278186   -58757.519            0       21.055       21.055      271.055       21.055       21.055      271.055           90           90           90    120162.21   0.27873511     -1925.21   -2010.3836   -571.01836  -0.78944564   -38.103572    64.534209    -1502.204 
    2200    161.27238      -147939    481.68376   -147457.31   -149941.49    5770.9995   -94953.595   -147940.37     1.373064 0.0019702189            0            0    1.3750342   -58757.777            0       21.055       21.055      271.055       21.055       21.055      271.055           90           90           90    120162.21   0.27873511   -1932.6022   -2015.5824   -304.46909    -10.81281    38.851981    132.67225   -1417.5512 
    2250    166.93507   -147963.67    498.59693   -147465.08   -149986.59    5752.2788   -94958.423   -147963.94   0.23451158  0.032553379            0            0   0.26706496   -58757.796            0       21.055       21.055      271.055       21.055       21.055      271.055           90           90           90    120162.21   0.27873511   -1965.4669   -1913.3383   -437.75913   -5.0223644    26.928411    80.290613   -1438.8548 
    2300    166.06731   -147965.23    496.00514   -147469.23   -149932.44    5770.4545   -94979.014   -147967.45    1.6253832   0.59051261            0            0    2.2158958   -58758.887            0       21.055       21.055      271.055       21.055       21.055      271.055           90           90           90    120162.21   0.27873511   -1937.2991   -2048.7936   -230.67754  -0.64803087   -48.631443  -0.60809635   -1405.5901 
    2350    169.53855    -147973.2    506.37293   -147466.83   -149262.25     5905.689   -95120.992   -147973.34   0.14602735 0.00018558593            0            0   0.14621294   -58758.041            0       21.055       21.055      271.055       21.055       21.055      271.055           90           90           90    120162.21   0.27873511   -1772.9853   -1871.8072    571.21341   -2.9751266   -31.343134   -17.450355   -1024.5263 
    2400    168.87807   -147964.95    504.40023   -147460.55   -149429.85    5876.2747   -95086.429   -147967.09    2.0265618    0.1113697            0            0    2.1379315   -58756.933            0       21.055       21.055      271.055       21.055       21.055      271.055           90           90           90    120162.21   0.27873511   -1858.7541   -1875.2677    362.78377     5.319767   -24.300983   -59.232713    -1123.746 
    2450    170.67301   -147960.39    509.76131   -147450.63   -149393.08    5872.6433   -95076.102   -147960.65    0.2112567  0.045208415            0            0   0.25646511   -58757.191            0       21.055       21.055      271.055       21.055       21.055      271.055           90           90           90    120162.21   0.27873511   -1805.3022   -1810.5153    290.54636   -5.8128163     7.502639   -71.834646   -1108.4237 
    2500    171.76648   -147952.91    513.02725   -147439.89   -149359.36    5884.9817   -95081.068   -147954.15    1.2329801 0.0015351306            0            0    1.2345152   -58758.063            0       21.055       21.055      271.055       21.055       21.055      271.055           90           90           90    120162.21   0.27873511   -1794.2081   -1858.0469    366.32086    6.3093534    23.970464   -22.543488   -1095.3114 
    2550     166.6299   -147929.47    497.68548   -147431.78   -149771.96    5793.5328   -94964.899   -147930.38  0.086496366   0.82121198            0            0   0.90770835   -58759.009            0       21.055       21.055      271.055       21.055       21.055      271.055           90           90           90    120162.21   0.27873511   -1893.8827   -1815.5733   -296.68139    7.8159861    59.016302    30.478135   -1335.3791 
    2600    169.00387    -147930.2    504.77596   -147425.42   -149937.18    5759.7936   -94932.928   -147931.43   0.66244113   0.56229096            0            0    1.2247321   -58758.291            0       21.055       21.055      271.055       21.055       21.055      271.055           90           90           90    120162.21   0.27873511   -1886.9234   -1895.3222   -517.62459   -2.0264595  -0.84953611   -43.184676     -1433.29 
    2650    169.11932   -147928.49    505.12078   -147423.37   -149822.27    5782.7526   -94954.548   -147929.09   0.26355811   0.33437692            0            0   0.59793503   -58757.293            0       21.055       21.055      271.055       21.055       21.055      271.055           90           90           90    120162.21   0.27873511    -1908.664   -1894.1381    -303.8691    18.974652    -3.408912   -121.13199   -1368.8904 
    2700    168.52899    -147929.5    503.35762   -147426.14   -149884.95    5769.7791    -94942.23   -147930.21    0.4212301   0.29068227            0            0   0.71191237   -58757.763            0       21.055       21.055      271.055       21.055       21.055      271.055           90           90           90    120162.21   0.27873511   -1910.5653   -1970.4136   -328.24505   -9.9903036    13.097672   -91.431834   -1403.0747 
    2750    173.63311   -147952.06    518.60244   -147433.46   -149363.11    5880.5399   -95074.756   -147952.86   0.29475719   0.49990421            0            0   0.79466141    -58758.64            0       21.055       21.055      271.055       21.055       21.055      271.055           90           90           90    120162.21   0.27873511   -1811.0519   -1750.2474    257.94269    9.4178972   -33.467082    -61.91948   -1101.1189 
    2800    172.00324   -147957.41     513.7344   -147443.67    -149200.1    5913.0645   -95112.821   -147958.31  0.031600867   0.86828599            0            0   0.89988686   -58758.551            0       21.055       21.055      271.055       21.055       21.055      271.055           90           90           90    120162.21   0.27873511   -1730.5992   -1862.4709    586.24665   -14.983652    33.024497    -19.59827   -1002.2745 
    2850    172.56661   -147969.98    515.41705   -147454.57   -149515.81    5851.4584   -95063.982   -147971.36    1.0651114   0.31031678            0            0    1.3754281   -58758.835            0       21.055       21.055      271.055       21.055       21.055      271.055           90           90           90    120162.21   0.27873511   -1877.4211   -1894.9925    243.77903    13.893955    63.219109    49.479336   -1176.2115 
    2900    162.26985   -147949.15      484.663   -147464.49   -149432.97    5871.3786   -95063.295   -147949.89   0.13103658   0.60159656            0            0   0.73263314   -58757.969            0       21.055       21.055      271.055       21.055       21.055      271.055           90           90           90    120162.21   0.27873511    -1839.802   -1783.1944    253.16631    2.5552588    19.633462    80.960963   -1123.2767 
    2950    166.15153    -147965.3    496.25667   -147469.04   -150010.54    5753.5992   -94962.848   -147967.35     1.916032   0.13206157            0            0    2.0480936   -58758.097            0       21.055       21.055      271.055       21.055       21.055      271.055           90           90           90    120162.21   0.27873511   -2032.0019   -1967.1444   -351.63926   -7.0571912   -69.365014    7.8733232   -1450.2619 
    3000    169.92322    -147975.3    507.52187   -147467.78   -150140.54    5718.3483    -94935.04   -147975.59  0.050601723   0.23921668            0            0    0.2898184   -58758.897            0       21.055       21.055      271.055       21.055       21.055      271.055           90           90           90    120162.21   0.27873511   -1973.7299    -2113.611     -488.145   -6.6933635   -47.450715     21.41423    -1525.162 
    3050    165.80185   -147955.46    495.21226   -147460.25   -149868.54    5778.5476   -94975.964   -147956.94   0.32922481    1.1497818            0            0    1.4790067   -58759.522            0       21.055       21.055      271.055       21.055       21.055      271.055           90           90           90    120162.21   0.27873511   -1957.1281   -1975.4175   -190.20348   -32.874606   -49.799086    54.008566   -1374.2497 
    3100    164.63451    -147940.7    491.72568   -147448.98   -149715.96    5810.0758   -94992.275   -147941.75  0.063737935   0.97932086            0            0    1.0430588   -58759.547            0       21.055       21.055      271.055       21.055       21.055      271.055           90           90           90    120162.21   0.27873511   -1809.4883   -1927.4722   -143.88177   -0.5973996    8.9548152    57.816443   -1293.6141 
    3150     178.6028   -147968.83    533.44578   -147435.39   -149544.54    5838.5341   -95049.628   -147970.41     0.634472   0.93903452            0            0    1.5735065   -58759.314            0       21.055       21.055      271.055       21.055       21.055      271.055           90           90           90    120162.21   0.27873511   -1893.4822   -1784.0715     66.90733    26.960999    6.2910979    94.942521   -1203.5488 
    3200    177.96024   -147958.21    531.52659   -147426.68   -149155.12    5923.5032   -95123.529   -147959.03   0.81473462 0.0054471903            0            0   0.82018181   -58759.001            0       21.055       21.055      271.055       21.055       21.055      271.055           90           90           90    120162.21   0.27873511    -1694.819   -1735.9664    471.87955    -7.583745   -0.7584781    136.59814   -986.30197 
    3250    173.90172   -147943.05    519.40473   -147423.64   -149428.49    5864.4525   -95048.621   -147943.59    0.5391941 0.0076031205            0            0   0.54679722   -58759.426            0       21.055       21.055      271.055       21.055       21.055      271.055           90           90           90    120162.21   0.27873511   -1797.7761   -1784.3155    149.99585    6.1341875   -39.779814    82.766101   -1144.0319 
    3300    174.25006   -147946.27    520.44513   -147425.82   -149381.85    5872.2446   -95059.972   -147947.76   0.20524754    1.2876668            0            0    1.4929144   -58760.033            0       21.055       21.055      271.055       21.055       21.055      271.055           90           90           90    120162.21   0.27873511   -1852.9846   -1737.7102     242.1865   -23.901539   -24.579956   -53.410749   -1116.1694 
    3350    174.32893   -147954.08    520.68071    -147433.4   -149639.56     5818.615   -95013.989   -147955.12   0.19011204   0.84810706            0            0    1.0382191   -58759.742            0       21.055       21.055      271.055       21.055       21.055      271.055           90           90           90    120162.21   0.27873511   -1921.3264   -1876.5908    21.193242   -16.004878      -34.637   -81.179259    -1258.908 
    3400    169.59462   -147951.54     506.5404      -147445   -149976.93     5751.207   -94945.142   -147953.55   0.30879866    1.7044866            0            0    2.0132853   -58759.614            0       21.055       21.055      271.055       21.055       21.055      271.055           90           90           90    120162.21   0.27873511   -1869.1487   -2025.1001   -440.16045    3.3614256   -23.684618   -53.773687   -1444.8031 
    3450     166.6908   -147952.83    497.86736   -147454.96      -149991    5752.1456   -94946.549   -147953.57   0.42890614      0.31304            0            0   0.74194615    -58759.17            0       21.055       21.055      271.055       21.055       21.055      271.055           90           90           90    120162.21   0.27873511   -1954.7173   -1972.1793   -414.53718    12.019633    19.743272   -44.474158   -1447.1446 
    3500    170.20742   -147969.31    508.37069   -147460.94   -149892.35    5772.5466    -94983.78   -147969.93   0.54093794  0.076825539            0            0   0.61776348   -58758.697            0       21.055       21.055      271.055       21.055       21.055      271.055           90           90           90    120162.21   0.27873511   -1904.1863   -1992.8335   -265.30299    8.2670138    49.278473   -37.956468   -1387.4409 
    3550    167.04987   -147961.78    498.93982   -147462.84   -149550.78     5851.241   -95055.624   -147963.16   0.88076655   0.50237633            0            0    1.3831429   -58758.782            0       21.055       21.055      271.055       21.055       21.055      271.055           90           90           90    120162.21   0.27873511    -1754.761   -1910.0703    90.503727   0.97680626    31.728724   -16.403452   -1191.4425 
    3600     169.1866   -147967.01    505.32175   -147461.69   -149243.05    5910.3188   -95118.847   -147967.57   0.40073521   0.16226874            0            0   0.56300394   -58759.043            0       21.055       21.055      271.055       21.055       21.055      271.055           90           90           90    120162.21   0.27873511   -1818.4999   -1790.7872    559.78174   -6.6272644   -15.555621   -70.207789   -1016.5018 
    3650    168.02144   -147957.43    501.84168   -147455.59    -149341.2    5888.0152   -95086.935   -147957.81   0.17056049   0.21140105            0            0   0.38196155   -58758.889            0       21.055       21.055      271.055       21.055       21.055      271.055           90           90           90    120162.21   0.27873511   -1847.0616   -1803.4103    422.49181    3.7980177   -20.144813    -121.8435   -1075.9934 
    3700    166.24784   -147939.92    496.54433   -147443.38   -149458.88    5862.8711   -95045.203   -147940.16   0.17849478   0.06247763            0            0   0.24097241   -58757.832            0       21.055       21.055      271.055       21.055       21.055      271.055           90           90           90    120162.21   0.27873511   -1798.9327   -1810.1772    158.77597    11.279766    17.928641   -91.027436   -1150.1113 
    3750    170.47456   -147938.98     509.1686   -147429.81   -149621.09    5824.5021   -95006.743   -147939.63   0.57477973   0.07445764            0            0   0.64923737   -58757.389            0       21.055       21.055      271.055       21.055       21.055      271.055           90           90           90    120162.21   0.27873511   -1892.9471    -1778.518   -79.776476    12.417943    35.311057   -17.750866   -1250.4139 
    3800    173.87288   -147938.78    519.31858   -147419.47    -149929.9    5755.3757   -94936.675   -147939.57   0.19757331    0.5843252            0            0   0.78189851   -58758.267            0       21.055       21.055      271.055       21.055       21.055      271.055           90           90           90    120162.21   0.27873511   -1879.3582   -1946.2857   -471.96792   -7.3419503    49.611741    31.603687   -1432.5373 
    3850    174.90752   -147937.89    522.40883   -147415.48   -149888.31    5762.9622   -94942.632   -147938.44   0.35110235   0.20110218            0            0   0.55220453   -58758.769            0       21.055       21.055      271.055       21.055       21.055      271.055           90           90           90    120162.21   0.27873511   -1883.4859   -1937.1647   -412.57739    15.014567    36.498321     110.9508    -1411.076 
    3900    174.75923   -147940.85    521.96593   -147418.89   -149698.67    5803.3945   -94986.544   -147942.01    0.1345126    1.0283232            0            0    1.1628358   -58758.865            0       21.055       21.055      271.055       21.055       21.055      271.055           90           90           90    120162.21   0.27873511   -1823.6242   -1943.7452   -135.38847    18.990099    2.7891594    116.99001   -1300.9193 
    3950    173.02332   -147949.35    516.78114   -147432.57   -149629.08    5824.9575   -95016.114   -147950.45     1.058317  0.039762619            0            0    1.0980796   -58759.295            0       21.055       21.055      271.055       21.055       21.055      271.055           90           90           90    120162.21   0.27873511   -1910.9752   -1907.6473    58.431431    4.2136898   -31.615437    27.302781    -1253.397 
    4000    174.64401   -147976.79    521.62178   -147455.17    -149494.7    5852.4089   -95070.661   -147977.03   0.21409165  0.021953019            0            0   0.23604467   -58758.774            0       21.055       21.055      271.055       21.055       21.055      271.055           90           90           90    120162.21   0.27873511   -1845.4433   -1866.4383    220.41876    16.327184   -44.716449    1.1174229   -1163.8209 
    4050    169.69552   -147974.31    506.84178   -147467.47      -149436    5872.2821   -95090.429   -147975.65    0.7434382   0.59689949            0            0    1.3403377     -58757.5            0       21.055       21.055      271.055       21.055       21.055      271.055           90           90           90    120162.21   0.27873511   -1784.7821   -1877.6116    292.46534    15.458138   -38.515633    51.632565   -1123.3095 
    4100    164.12274   -147958.38    490.19716   -147468.18   -149551.47    5848.9154   -95049.623   -147958.87   0.14058293   0.34904151            0            0   0.48962444   -58758.159            0       21.055       21.055      271.055       21.055       21.055      271.055           90           90           90    120162.21   0.27873511   -1869.4675   -1817.9966    121.08962    11.163806    7.2938955    97.596761   -1188.7915 
    4150    162.71653   -147950.51    485.99712   -147464.51   -149500.13    5861.9068   -95055.746   -147951.44   0.47120236   0.45556331            0            0   0.92676567   -58757.598            0       21.055       21.055      271.055       21.055       21.055      271.055           90           90           90    120162.21   0.27873511   -1794.1496   -1822.4244    131.81662    1.3990888    33.410715    105.17855   -1161.5858 
    4200     164.7215   -147947.92    491.98551   -147455.93   -149721.83    5810.9136   -95000.822   -147948.14   0.18966242  0.036217343            0            0   0.22587977   -58758.235            0       21.055       21.055      271.055       21.055       21.055      271.055           90           90           90    120162.21   0.27873511   -1821.3776   -1932.1663   -125.44628    1.1817104    10.020963     88.02992   -1292.9967 
    4250    164.23574   -147935.93    490.53464   -147445.39   -149822.42    5788.7478    -94966.88   -147936.57   0.46646017   0.17732071            0            0   0.64378087    -58758.44            0       21.055       21.055      271.055       21.055       21.055      271.055           90           90           90    120162.21   0.27873511   -1871.9416   -1919.5142     -277.768    23.479806   -56.386292    20.704706   -1356.4079 
    4300    172.69212    -147949.9    515.79192   -147434.11   -149717.95    5805.1272   -94997.907   -147950.37   0.35165647   0.11260391            0            0   0.46426038   -58757.588            0       21.055       21.055      271.055       21.055       21.055      271.055           90           90           90    120162.21   0.27873511   -1845.1576   -1905.8486   -158.68427    8.4218854   -40.663101   -71.008633   -1303.2302 
    4350    171.83505   -147941.22    513.23205   -147427.99   -149746.65    5797.1904   -94981.945   -147941.72   0.33215486   0.17074813            0            0   0.50290299    -58756.97            0       21.055       21.055      271.055       21.055       21.055      271.055           90           90           90    120162.21   0.27873511   -1821.6408   -1962.6052   -185.05451    18.148264     12.86535   -111.26517   -1323.1002 
    4400    170.65811   -147934.87    509.71682   -147425.15   -149524.69    5846.1858    -95024.32   -147935.78    0.3125526    0.6052667            0            0   0.91781929   -58757.649            0       21.055       21.055      271.055       21.055       21.055      271.055           90           90           90    120162.21   0.27873511   -1820.6495   -1785.5012    11.954681    17.525045    45.588035   -70.491648   -1198.0654 
    4450    171.83152   -147940.35    513.22152   -147427.12   -149411.83    5865.6151   -95048.163   -147941.19   0.41599842   0.42941751            0            0   0.84541593   -58758.643            0       21.055       21.055      271.055       21.055       21.055      271.055           90           90           90    120162.21   0.27873511   -1791.3566   -1788.8693    182.61469   -0.8028453    11.844448   -54.245017   -1132.5371 
    4500    164.69433   -147931.39    491.90435   -147439.49   -149385.39    5880.3735   -95054.355   -147932.65   0.34446132   0.90806483            0            0    1.2525261   -58758.665            0       21.055       21.055      271.055       21.055       21.055      271.055           90           90           90    120162.21   0.27873511   -1605.1238   -1863.9336    137.88278    12.841848     38.49156   -26.880771   -1110.3915 
    4550    165.53767   -147954.66    494.42324   -147460.24   -149540.78    5848.9906   -95046.117   -147954.96   0.27914159  0.019423069            0            0   0.29856466   -58757.831            0       21.055       21.055      271.055       21.055       21.055      271.055           90           90           90    120162.21   0.27873511   -1804.9742   -1902.1966     145.5004    9.9054607    17.049235   0.61463281   -1187.2235 
    4600    161.86602    -147956.6    483.45685   -147473.14   -149566.88    5850.3907   -95050.597    -147956.9   0.30382217 0.0025513702            0            0   0.30637354   -58756.698            0       21.055       21.055      271.055       21.055       21.055      271.055           90           90           90    120162.21   0.27873511   -1836.4115   -1887.7832    139.93592   -16.168155    6.0525276   -111.56049   -1194.7529 
    4650    164.86226   -147967.71    492.40593   -147475.31   -149900.09     5774.577    -94985.77   -147968.27   0.20598385    0.3525609            0            0   0.55854475   -58757.078            0       21.055       21.055      271.055       21.055       21.055      271.055           90           90           90    120162.21   0.27873511   -1909.2359   -2041.9793   -199.77218   -2.0971038    -32.70734   -135.42747   -1383.6625 
    4700    166.86866   -147968.96    498.39858   -147470.56   -149884.34    5777.9952   -94988.688   -147969.66   0.67080945  0.030154998            0            0   0.70096444   -58758.969            0       21.055       21.055      271.055       21.055       21.055      271.055           90           90           90    120162.21   0.27873511    -1884.859   -2028.6245   -218.65997    14.392454   -11.278845   -60.076902   -1377.3811 
    4750    161.21208   -147942.67    481.50366   -147461.16   -149561.29    5848.1244   -95031.873   -147943.16   0.19293155    0.2950494            0            0   0.48798096   -58759.407            0       21.055       21.055      271.055       21.055       21.055      271.055           90           90           90    120162.21   0.27873511   -1793.5921   -1817.6965    16.090299    6.1265975    56.452968    38.695946   -1198.3994 
    4800    167.62507   -147951.26    500.65781    -147450.6   -149670.45     5819.417   -95011.803   -147951.53   0.26148132 0.0016573454            0            0   0.26313867    -58759.14            0       21.055       21.055      271.055       21.055       21.055      271.055           90           90           90    120162.21   0.27873511   -1851.0572    -1897.495   -51.584357   -2.4414485    52.188004    60.048865   -1266.7122 
    4850    170.41584   -147952.39     508.9932   -147443.39   -149457.87    5861.9354   -95055.649   -147952.76   0.30697761  0.069754427            0            0   0.37673203   -58759.049            0       21.055       21.055      271.055       21.055       21.055      271.055           90           90           90    120162.21   0.27873511   -1762.9934   -1907.4721    221.89833   -2.4702563   -41.015826    107.70981   -1149.5224 
    4900    173.33818   -147955.97    517.72156   -147438.25   -149528.57    5844.3982    -95042.58    -147956.7   0.39816163   0.32900627            0            0    0.7271679   -58758.517            0       21.055       21.055      271.055       21.055       21.055      271.055           90           90           90    120162.21   0.27873511    -1811.806   -1948.0375    181.43652    19.102299   -45.089762    109.90314   -1192.8023 
    4950    175.89303   -147961.61    525.35231   -147436.26   -149642.35    5818.6504   -95022.429      -147962   0.26526026   0.12262434            0            0    0.3878846   -58758.221            0       21.055       21.055      271.055       21.055       21.055      271.055           90           90           90    120162.21   0.27873511   -1912.7604   -1878.4119    14.580428    7.7090502   -17.603559     15.04368   -1258.8639 
    5000    173.68707   -147956.45    518.76361   -147437.69   -149567.28    5837.1662   -95036.841   -147957.56   0.54222026   0.56169359            0            0    1.1039138    -58757.88            0       21.055       21.055      271.055       21.055       21.055      271.055           90           90           90    120162.21   0.27873511   -1806.0147   -1894.2277    54.594277    14.858486   -28.825232   -0.6385207    -1215.216 
    5050    169.59647   -147946.71    506.54593   -147440.16   -149773.17    5792.2008   -94981.141   -147946.98   0.18832805   0.08649808            0            0   0.27482613   -58758.042            0       21.055       21.055      271.055       21.055       21.055      271.055           90           90           90    120162.21   0.27873511   -1901.5894    -1921.044   -171.23209    6.6416563   -37.721963    77.981165   -1331.2885 
    5100      168.846   -147948.26    504.30444   -147443.95   -149863.02    5776.8958   -94967.782   -147949.39   0.88323177   0.24863142            0            0    1.1318632   -58758.503            0       21.055       21.055      271.055       21.055       21.055      271.055           90           90           90    120162.21   0.27873511   -1839.6294   -2013.7182   -287.84645    19.958761    30.832984    80.490642    -1380.398 
    5150    168.01144   -147953.53    501.81181   -147451.72   -149718.43    5807.6491   -95002.946   -147953.92   0.39233725 0.0032441267            0            0   0.39558138   -58758.627            0       21.055       21.055      271.055       21.055       21.055      271.055           90           90           90    120162.21   0.27873511    -1851.734    -1967.817   -60.824189    2.6666871   -2.4278015    87.486352   -1293.4584 
    5200    162.86827   -147959.21    486.45034   -147472.76    -149744.3    5808.2404   -95009.049   -147959.71   0.47753938  0.023458854            0            0   0.50099823   -58758.906            0       21.055       21.055      271.055       21.055       21.055      271.055           90           90           90    120162.21   0.27873511   -1930.1974   -1937.8304   -20.605289     14.30129     1.206496     86.61569    -1296.211 
    5250    164.09337   -147979.16    490.10942   -147489.05   -149738.46    5811.6686    -95033.18   -147980.12   0.24011512   0.72292335            0            0   0.96303847   -58758.613            0       21.055       21.055      271.055       21.055       21.055      271.055           90           90           90    120162.21   0.27873511   -1875.6522   -2010.4146     35.30928   -1.9649954   -36.651632   -48.968066   -1283.5858 
    5300    164.15218   -147982.07    490.28508   -147491.78   -149559.72    5849.5705   -95073.298    -147982.7   0.35651416   0.27355776            0            0   0.63007192   -58758.971            0       21.055       21.055      271.055       21.055       21.055      271.055           90           90           90    120162.21   0.27873511   -1876.5779   -1936.5018    272.98852    14.791175   -44.018543   -121.83306   -1180.0304 
    5350    161.19345   -147965.83    481.44802   -147484.38    -149686.4     5824.489   -95032.329    -147967.1   0.49551168   0.77500008            0            0    1.2705118   -58759.259            0       21.055       21.055      271.055       21.055       21.055      271.055           90           90           90    120162.21   0.27873511    -1933.586   -1925.9593    89.914147    8.1044129    11.774751   -119.65658   -1256.5437 
    5400    163.64624   -147958.17    488.77396    -147469.4   -149718.31     5812.775   -95011.874   -147958.77   0.51152048  0.083830952            0            0   0.59535143   -58759.671            0       21.055       21.055      271.055       21.055       21.055      271.055           90           90           90    120162.21   0.27873511    -1856.582    -1955.437   -37.887139    5.9908391     76.50831   -58.463799    -1283.302 
    5450    168.42637   -147958.71     503.0511   -147455.66   -149726.02    5808.0081   -95008.258   -147959.28   0.54821441  0.011975884            0            0   0.56019029   -58759.025            0       21.055       21.055      271.055       21.055       21.055      271.055           90           90           90    120162.21   0.27873511   -1833.7195   -1917.3853   -135.50894    13.304565    72.440999   -75.737236   -1295.5379 
    5500    164.41304   -147939.28     491.0642   -147448.22   -149740.61    5805.7528   -94987.795   -147940.24   0.13362767   0.82643391            0            0   0.96006158   -58758.198            0       21.055       21.055      271.055       21.055       21.055      271.055           90           90           90    120162.21   0.27873511   -1828.6021   -1949.5792   -146.15777    6.1930092   0.49269592   -21.962228    -1308.113 
    5550    166.79105   -147941.11    498.16679   -147442.95   -149726.45    5806.1615   -94988.534   -147941.48    0.3605889 0.0070501512            0            0   0.36763905    -58759.11            0       21.055       21.055      271.055       21.055       21.055      271.055           90           90           90    120162.21   0.27873511   -1909.6967   -1969.8412   -29.575724    18.649297   0.46688403   -39.943438   -1303.0379 
    5600    174.02046   -147957.35    519.75937   -147437.59   -149608.44    5827.1988   -95025.783   -147957.85   0.32000784   0.18295187            0            0   0.50295971   -58759.271            0       21.055       21.055      271.055       21.055       21.055      271.055           90           90           90    120162.21   0.27873511   -1841.8421   -1877.0949    2.6717335   -13.507347   -30.668451   -109.98334   -1238.7551 
    5650    171.81821   -147948.47    513.18177   -147435.28   -149688.98    5808.7106   -94997.947   -147948.83   0.32468281  0.042046118            0            0   0.36672893   -58759.597            0       21.055       21.055      271.055       21.055       21.055      271.055           90           90           90    120162.21   0.27873511   -1882.5905   -1966.7292   -8.7744142    5.9373592   -26.539595   -113.13476   -1286.0314 
    5700    172.64134    -147949.6    515.64027   -147433.96   -149493.76    5850.2942    -95041.63   -147949.91   0.31228233 0.0004367266            0            0   0.31271906   -58758.576            0       21.055       21.055      271.055       21.055       21.055      271.055           90           90           90    120162.21   0.27873511   -1911.4006   -1836.4835    221.71081    11.752831    14.485252   -3.1895437   -1175.3911 
    5750    170.07312   -147945.12    507.96958   -147437.15   -149384.96    5878.3537   -95065.021   -147945.79   0.19834939   0.46417108            0            0   0.66252046   -58759.118            0       21.055       21.055      271.055       21.055       21.055      271.055           90           90           90    120162.21   0.27873511   -1749.8349   -1810.1372    225.52625   -8.2759245    46.278944    83.680965   -1111.4819 
    5800    176.33646   -147973.62    526.67673   -147446.94   -149633.42    5823.0992   -95037.889    -147974.4   0.73867414  0.043413959            0            0    0.7820881   -58759.613            0       21.055       21.055      271.055       21.055       21.055      271.055           90           90           90    120162.21   0.27873511   -1921.6384   -1904.5719     83.19343   -6.3562687    21.877189    121.66186   -1247.6723 
    5850    161.72886   -147946.91    483.04717   -147463.86   -149694.88    5818.3727   -95006.704   -147947.73   0.36092574   0.46286265            0            0   0.82378839   -58759.401            0       21.055       21.055      271.055       21.055       21.055      271.055           90           90           90    120162.21   0.27873511   -1851.0807   -1890.0337   -78.149804   -9.2939337    38.657918    129.04927   -1273.0881 
    5900     164.1091   -147965.37    490.15641   -147475.21   -149857.83    5786.1524   -94993.368   -147965.85     0.475936 0.0092309817            0            0   0.48516698   -58758.638            0       21.055       21.055      271.055       21.055       21.055      271.055           90           90           90    120162.21   0.27873511   -1864.2424   -2019.4924   -195.05602    2.8613878   -79.841486    53.883486   -1359.5969 
    5950     162.5569   -147964.04    485.52036   -147478.52   -149800.49     5799.473   -95004.751   -147964.65   0.40343461   0.20507941            0            0   0.60851402    -58759.37            0       21.055       21.055      271.055       21.055       21.055      271.055           90           90           90    120162.21   0.27873511   -1895.7592   -1934.1483   -145.06817  -0.72315479    -99.89237    11.187359   -1324.9919 
    6000    162.43479   -147958.13    485.15563   -147472.97   -149658.25    5830.3873   -95029.651   -147958.75   0.48444893   0.13855721            0            0   0.62300614   -58759.486            0       21.055       21.055      271.055       21.055       21.055      271.055           90           90           90    120162.21   0.27873511   -1862.6345   -1921.8318    43.496888   -4.1363083   -5.6993327    42.076349   -1246.9898 
    6050    169.17368   -147965.72    505.28314   -147460.44   -149589.61    5838.1441   -95044.559   -147966.13   0.38108574  0.026810083            0            0   0.40789582   -58759.711            0       21.055       21.055      271.055       21.055       21.055      271.055           90           90           90    120162.21   0.27873511   -1922.1342   -1829.3872    106.58782   0.35456192    51.673074    86.878563   -1214.9778 
    6100     168.5014   -147949.68    503.27521   -147446.41   -149479.26    5859.9422   -95051.918    -147950.7   0.51491739   0.49852503            0            0    1.0134424    -58758.72            0       21.055       21.055      271.055       21.055       21.055      271.055           90           90           90    120162.21   0.27873511      -1696.2   -1987.6266    203.78742   -9.2444416    21.402436    82.063937   -1160.0131 
    6150    171.42906   -147950.79    512.01945   -147438.77   -149518.78    5843.8635   -95037.168   -147951.08   0.29257917 0.0039449795            0            0   0.29652415   -58757.779            0       21.055       21.055      271.055       21.055       21.055      271.055           90           90           90    120162.21   0.27873511   -1810.3003   -1956.3021    205.83709   -1.7956101   -9.0846689     86.58339   -1186.9218 
    6200    176.62529   -147963.03    527.53942   -147435.49   -149791.03    5786.1732   -94991.477   -147963.82   0.51250456   0.27958896            0            0   0.79209352   -58758.516            0       21.055       21.055      271.055       21.055       21.055      271.055           90           90           90    120162.21   0.27873511   -1929.0512     -1983.35   -120.04185    9.4279346   -23.830936    20.324042   -1344.1477 
    6250    172.70556      -147954    515.83208   -147438.17   -149676.69    5812.7078   -95007.181   -147954.38   0.23219249   0.14303501            0            0    0.3752275   -58759.902            0       21.055       21.055      271.055       21.055       21.055      271.055           90           90           90    120162.21   0.27873511   -1835.4064   -1965.1914   -31.513177    -5.442859   -29.417246   -102.28272   -1277.3703 
    6300     173.0079   -147957.47     516.7351   -147440.74   -149887.59    5766.5985   -94964.842   -147957.91   0.39282271   0.04123273            0            0   0.43405544   -58759.664            0       21.055       21.055      271.055       21.055       21.055      271.055           90           90           90    120162.21   0.27873511   -1978.7035   -1984.8394   -225.21199   0.83419367    -29.28363   -151.96127   -1396.2516 
    6350    166.55665   -147940.76    497.46669   -147443.29   -149846.77    5780.9914   -94963.521   -147941.65   0.21056527    0.6858378            0            0   0.89640307   -58759.125            0       21.055       21.055      271.055       21.055       21.055      271.055           90           90           90    120162.21   0.27873511     -1796.51   -2005.0526   -312.93729    -9.569998    9.8031666   -97.984092      -1371.5 
    6400    169.42779    -147952.8    506.04213   -147446.76   -149708.14    5810.6605   -95005.537   -147953.36   0.55980595 0.0030703851            0            0   0.56287634   -58758.485            0       21.055       21.055      271.055       21.055       21.055      271.055           90           90           90    120162.21   0.27873511   -1853.5445   -1970.7807   -46.923659    1.6106703    47.217811   -31.488177   -1290.4163 
    6450    166.13847   -147948.98    496.21769   -147452.76   -149705.93     5812.365   -95003.273   -147949.52     0.336068   0.20651057            0            0   0.54257857   -58758.612            0       21.055       21.055      271.055       21.055       21.055      271.055           90           90           90    120162.21   0.27873511   -1917.3137   -1916.8771   -23.005158   -6.4122952    77.118611    -34.40404    -1285.732 
    6500    166.73723   -147959.76    498.00603   -147461.75   -149512.68    5856.8335   -95057.892   -147960.32   0.39041477   0.17106422            0            0   0.56147899   -58759.259            0       21.055       21.055      271.055       21.055       21.055      271.055           90           90           90    120162.21   0.27873511   -1859.5404   -1903.1266    251.68029   -4.9644381    17.473805   -39.253787   -1170.3289 
    6550    167.77023   -147974.04    501.09136   -147472.95   -149480.58    5861.9693   -95076.942   -147974.74   0.46528743   0.23826081            0            0   0.70354823    -58759.77            0       21.055       21.055      271.055       21.055       21.055      271.055           90           90           90    120162.21   0.27873511   -1895.4746   -1842.6526    301.26781   0.54375886   -12.618289   -59.846392   -1145.6198 
    6600    162.84667   -147969.82    486.38583   -147483.43   -149641.42    5832.3284   -95045.107   -147971.87   0.36014405    1.6985905            0            0    2.0587345   -58759.095            0       21.055       21.055      271.055       21.055       21.055      271.055           90           90           90    120162.21   0.27873511    -1924.033   -1891.0492    120.82494   -4.7788698   -12.735664   -119.38167   -1231.4191 
    6650    167.18201   -147984.56    499.33448   -147485.23   -149853.49    5786.4877   -95012.803   -147985.33   0.48782183   0.28575345            0            0   0.77357529   -58759.019            0       21.055       21.055      271.055       21.055       21.055      271.055           90           90           90    120162.21   0.27873511   -1908.9409   -1952.2716   -193.01722    2.1126785    18.166142   -46.340461   -1351.4099 
    6700    170.07016    -147983.7    507.96074   -147475.74   -149832.17    5787.8054   -95014.237   -147984.63   0.32019316   0.61408423            0            0   0.93427739   -58758.199            0       21.055       21.055      271.055       21.055       21.055      271.055           90           90           90    120162.21   0.27873511    -1921.261   -2039.9608   -72.753787    5.4849875    28.204928    35.480143   -1344.6585 
    6750    171.10879   -147966.86    511.06288    -147455.8    -149991.3    5749.8217   -94959.479   -147967.99    1.0084825    0.1202767            0            0    1.1287592    -58758.33            0       21.055       21.055      271.055       21.055       21.055      271.055           90           90           90    120162.21   0.27873511    -1977.208   -2001.3074    -362.0067  -0.59947414    22.611667    98.070793   -1446.8407 
    6800    165.95583   -147938.09    495.67216   -147442.42   -149567.45    5839.9378   -95020.037   -147938.65   0.34512342   0.21650356            0            0   0.56162699    -58758.55            0       21.055       21.055      271.055       21.055       21.055      271.055           90           90           90    120162.21   0.27873511   -1874.5323   -1834.9372    71.628379   -6.9029209    10.307898     135.4805   -1212.6137 
    6850    174.67232   -147957.65    521.70634   -147435.94   -149567.34    5836.0199   -95037.889   -147960.47     0.584891    2.2414952            0            0    2.8263862   -58758.605            0       21.055       21.055      271.055       21.055       21.055      271.055           90           90           90    120162.21   0.27873511   -1868.3665   -1860.8228     80.45654   -2.2137746   -8.6185788    119.56101   -1216.2442 
    6900    169.48977   -147941.15    506.22725   -147434.93   -149558.65    5836.3091   -95019.124   -147942.41   0.13962348    1.1194002            0            0    1.2590237   -58759.598            0       21.055       21.055      271.055       21.055       21.055      271.055           90           90           90    120162.21   0.27873511   -1813.3174   -1830.9325    8.6600437    1.3925346    -20.42837    62.971782   -1211.8633 
    6950    166.11196   -147932.81    496.13848   -147436.68   -149466.15    5864.5744   -95041.387   -147934.72   0.65777357     1.250757            0            0    1.9085306   -58757.911            0       21.055       21.055      271.055       21.055       21.055      271.055           90           90           90    120162.21   0.27873511   -1862.4374   -1828.9599    217.14536   -3.2136703   -47.344365   -11.783599    -1158.084 
    7000    168.61856   -147944.17    503.62514   -147440.55   -149524.75    5852.7322   -95039.941   -147945.51   0.83397416   0.49939163            0            0    1.3333658   -58758.299            0       21.055       21.055      271.055       21.055       21.055      271.055           90           90           90    120162.21   0.27873511   -1707.7431   -1885.8771    25.686428    9.8254809   -31.511119    28.143176   -1189.3113 
    7050    167.07382   -147947.18    499.01135   -147448.16   -149665.84    5820.1069   -95008.822   -147947.94   0.33461084   0.42980533            0            0   0.76441617   -58759.226            0       21.055       21.055      271.055       21.055       21.055      271.055           90           90           90    120162.21   0.27873511   -1795.3784    -1932.887   -68.163833   -12.572079    41.738739    84.275827   -1265.4764 
    7100    165.28604   -147952.69    493.67167   -147459.02    -149651.4    5825.6953   -95020.388   -147954.84    0.4266298    1.7155133            0            0    2.1421431   -58760.143            0       21.055       21.055      271.055       21.055       21.055      271.055           90           90           90    120162.21   0.27873511   -1859.1283   -1940.8747    46.885762   -3.5946215    41.468853    51.305658   -1251.0391 
    7150    166.06856   -147966.37    496.00886   -147470.36   -149793.08    5795.6687   -95003.013   -147966.52  0.053324231  0.096542486            0            0   0.14986672   -58759.175            0       21.055       21.055      271.055       21.055       21.055      271.055           90           90           90    120162.21   0.27873511   -1856.4132   -1888.0296   -231.80773   -8.7700659   -39.187039    30.975092   -1325.4168 
    7200    158.20165   -147951.27    472.51222   -147478.76   -149636.26    5841.6105   -95035.485   -147952.86    1.1212894   0.46660743            0            0    1.5878969   -58758.987            0       21.055       21.055      271.055       21.055       21.055      271.055           90           90           90    120162.21   0.27873511   -1724.8307   -1905.6844   -62.906181   -1.6392133   -67.644379   -54.828195   -1231.1405 
    7250    160.77558    -147961.9    480.19996    -147481.7   -149655.22    5830.6468   -95034.622   -147962.31    0.2113556    0.2017474            0            0     0.413103   -58758.337            0       21.055       21.055      271.055       21.055       21.055      271.055           90           90           90    120162.21   0.27873511   -1814.8841   -1974.9086     68.94373   -13.590418   -35.200173   -120.90678    -1240.283 
    7300    167.67719   -147975.84    500.81347   -147475.03   -149648.56    5829.0998   -95046.587   -147977.11    1.2154154  0.046970269            0            0    1.2623857   -58759.618            0       21.055       21.055      271.055       21.055       21.055      271.055           90           90           90    120162.21   0.27873511   -1816.3924    -1999.025    94.563698     7.869378    15.009362   -117.77802   -1240.2846 
    7350    172.71116   -147969.61    515.84879   -147453.76   -149466.15    5857.8964   -95069.304   -147970.43   0.17646417   0.64762375            0            0   0.82408793   -58759.023            0       21.055       21.055      271.055       21.055       21.055      271.055           90           90           90    120162.21   0.27873511   -1788.1213   -1888.3991    231.51175    -6.001798    44.129223   -112.64873   -1148.3362 
    7400    176.77328   -147964.95    527.98142   -147436.97   -149565.04    5834.4582   -95040.993   -147965.57   0.61947335 0.0052416143            0            0   0.62471496    -58759.04            0       21.055       21.055      271.055       21.055       21.055      271.055           90           90           90    120162.21   0.27873511   -1898.1479   -1918.8717    173.98996     16.51826    45.239095   -52.102016   -1214.3432 
    7450    176.20857    -147955.7    526.29478    -147429.4   -149731.03    5796.9017   -94993.942   -147955.85   0.13210742  0.020623895            0            0   0.15273132   -58758.813            0       21.055       21.055      271.055       21.055       21.055      271.055           90           90           90    120162.21   0.27873511   -1953.9039   -1905.8991   -80.340645  -0.69956435    54.739587   0.80866219   -1313.3812 
    7500    172.01417   -147941.05    513.76704   -147427.28   -149789.78    5789.1163   -94972.683   -147942.33   0.76547303   0.51100749            0            0    1.2764805    -58758.76            0       21.055       21.055      271.055       21.055       21.055      271.055           90           90           90    120162.21   0.27873511   -2012.0118   -1929.6336   -102.69723   -4.3544211    67.884576   -36.109085   -1348.1142 
    7550    172.40258   -147943.75    514.92715   -147428.82   -149925.31    5756.7058   -94942.546   -147944.66   0.56336521   0.34710941            0            0   0.91047461   -58758.818            0       21.055       21.055      271.055       21.055       21.055      271.055           90           90           90    120162.21   0.27873511   -1956.3696   -2018.7275   -298.64126   -8.6667331   -29.546635   -63.606562   -1424.5794 
    7600    172.09587    -147949.1    514.01108   -147435.09   -149870.63    5771.5351   -94962.736   -147950.19   0.35004666   0.73933744            0            0    1.0893841   -58758.987            0       21.055       21.055      271.055       21.055       21.055      271.055           90           90           90    120162.21   0.27873511   -1862.2133   -2040.8027    -266.3856   -7.2950206   -46.898426   -85.679521   -1389.8006 
    7650     172.0447    -147959.4    513.85823   -147445.54   -149698.72    5811.0687   -95011.787   -147960.22   0.80103534  0.020162788            0            0   0.82119813   -58759.505            0       21.055       21.055      271.055       21.055       21.055      271.055           90           90           90    120162.21   0.27873511   -1878.0759   -1984.7339    5.6064879    13.018763    17.675406    6.0694541   -1285.7344 
    7700    168.67821   -147962.64    503.80329   -147458.84   -149564.45    5840.4433   -95043.869    -147962.9   0.18173778  0.078632137            0            0   0.26036992   -58759.475            0       21.055       21.055      271.055       21.055       21.055      271.055           90           90           90    120162.21   0.27873511   -1826.3018   -1935.8103    157.51433    19.447914    66.419228    69.058102   -1201.5326 
    7750    161.93799   -147953.18     483.6718   -147469.51   -149449.88    5874.8199   -95070.658   -147954.63   0.89305274   0.56112344            0            0    1.4541762   -58758.795            0       21.055       21.055      271.055       21.055       21.055      271.055           90           90           90    120162.21   0.27873511     -1774.36   -1869.6935    253.86002   -1.7617074    13.402343    131.45974   -1130.0645 
    7800    170.27818    -147982.1    508.58205   -147473.51   -149558.59    5845.5385   -95069.794   -147982.63    0.1477534   0.38940239            0            0   0.53715579   -58758.377            0       21.055       21.055      271.055       21.055       21.055      271.055           90           90           90    120162.21   0.27873511   -1819.6597   -1907.8586    158.09026    1.7861449   -25.563982    124.10251   -1189.8094 
    7850    170.60123   -147981.32    509.54692   -147471.77   -149729.78    5808.9928   -95033.831   -147983.06   0.49696153    1.2475619            0            0    1.7445234   -58758.226            0       21.055       21.055      271.055       21.055       21.055      271.055           90           90           90    120162.21   0.27873511   -1922.9884   -1900.9656   -41.516949    11.744768   -39.936959    62.265137   -1288.4903 
    7900    160.56302    -147939.7    479.56509   -147460.13   -149730.32    5810.5427    -94992.38   -147940.07   0.35649072  0.019007574            0            0   0.37549829   -58758.235            0       21.055       21.055      271.055       21.055       21.055      271.055           90           90           90    120162.21   0.27873511   -1905.1146   -1905.3533   -75.858747   -15.540728   -89.762238    45.951376   -1295.4422 
    7950    176.58081   -147959.07    527.40656   -147431.66   -149832.01    5777.5115   -94977.965   -147959.74   0.64817881  0.019621497            0            0   0.66780031   -58759.282            0       21.055       21.055      271.055       21.055       21.055      271.055           90           90           90    120162.21   0.27873511   -1911.0961   -1996.9895   -201.06018   0.56919811   -24.077604    -17.04889   -1369.7153 
    8000    170.51428      -147930    509.28722   -147420.71   -149554.58    5837.2893   -95009.614   -147931.07   0.22850676   0.84133938            0            0    1.0698461   -58758.746            0       21.055       21.055      271.055       21.055       21.055      271.055           90           90           90    120162.21   0.27873511    -1781.379   -1893.0263     21.44468   0.68924199   -9.9792267     14.58169   -1217.6535 
    8050    174.40336   -147942.04    520.90302   -147421.14   -149731.82    5796.0628   -94979.907   -147942.56   0.40338072   0.11165597            0            0   0.51503669   -58758.711            0       21.055       21.055      271.055       21.055       21.055      271.055           90           90           90    120162.21   0.27873511   -1943.9405   -1961.5358   -50.174996     18.21333    4.4608016    69.711565   -1318.5504 
    8100    172.80994    -147942.4    516.14384   -147426.25   -149630.45    5822.0783   -95006.491   -147943.03   0.46370045   0.16675166            0            0   0.63045212   -58758.616            0       21.055       21.055      271.055       21.055       21.055      271.055           90           90           90    120162.21   0.27873511   -1900.3619     -1913.73    40.745189     8.096536    31.923477    49.661316   -1257.7822 
[...]
  197850    167.87939   -147961.54     501.4174   -147460.12   -150088.24    5732.8258   -94935.118   -147961.82   0.26791613  0.014496627            0            0   0.28241276   -58759.529            0       21.055       21.055      271.055       21.055       21.055      271.055           90           90           90    120162.21   0.27873511   -2002.3776   -2026.7752    -469.9131    8.2823409    13.420151    6.1855847   -1499.6886 
  197900    171.53688    -147955.8     512.3415   -147443.46   -149865.03    5775.2164   -94971.933   -147956.38   0.54344758  0.030888646            0            0   0.57433623    -58759.66            0       21.055       21.055      271.055       21.055       21.055      271.055           90           90           90    120162.21   0.27873511   -2015.6432   -1915.5523   -214.27391   0.76388592   -20.663141    50.144637   -1381.8231 
  197950     167.6572    -147932.9    500.75378   -147432.15   -149477.73    5856.6101   -95030.699   -147933.64    0.5101615    0.2268725            0            0     0.737034   -58759.552            0       21.055       21.055      271.055       21.055       21.055      271.055           90           90           90    120162.21   0.27873511   -1842.1275   -1770.6205    110.91991    12.433555   -17.843355    17.536578   -1167.2761 
  198000    175.05361   -147949.84    522.84516      -147427   -149620.85    5820.9741   -95011.489   -147950.34   0.38286808   0.11664633            0            0   0.49951441   -58759.826            0       21.055       21.055      271.055       21.055       21.055      271.055           90           90           90    120162.21   0.27873511   -1896.7644   -1910.5687    51.675869    11.118814   -13.358803   -4.8554395   -1251.8858 
  198050    170.80691   -147937.95    510.16124   -147427.78   -149237.72    5904.5162   -95083.198   -147938.18  0.012922837   0.21950117            0            0   0.23242401   -58759.497            0       21.055       21.055      271.055       21.055       21.055      271.055           90           90           90    120162.21   0.27873511   -1811.6327   -1798.6093    511.82006    13.720882    9.9135698    35.965519   -1032.8073 
  198100     174.7149   -147954.46     521.8335   -147432.62   -149450.53    5860.7075   -95057.677    -147955.3   0.83361208  0.010403043            0            0   0.84401513   -58758.333            0       21.055       21.055      271.055       21.055       21.055      271.055           90           90           90    120162.21   0.27873511   -1863.1687   -1911.4192    320.14734    1.6204005     26.11412    93.451268   -1151.4802 
  198150    162.86572   -147930.51    486.44271   -147444.06   -149794.11    5792.6476   -94964.727   -147930.66   0.14313078  0.015193154            0            0   0.15832393   -58758.584            0       21.055       21.055      271.055       21.055       21.055      271.055           90           90           90    120162.21   0.27873511   -1941.9582   -1931.2021    -149.8685   -2.0440957    -12.73199    39.171716   -1341.0096 
  198200    170.03417   -147964.63    507.85325   -147456.77   -149820.17    5787.1119   -94994.148   -147964.99   0.35028296  0.010588298            0            0   0.36087126   -58757.952            0       21.055       21.055      271.055       21.055       21.055      271.055           90           90           90    120162.21   0.27873511    -1894.579   -1983.7428   -167.56122   -14.071408   -22.000219    3.6862607   -1348.6277 
  198250    164.28236   -147959.87    490.67389   -147469.19   -149997.62    5753.7465    -94953.86   -147959.98   0.10492869  0.010498701            0            0   0.11542739    -58759.87            0       21.055       21.055      271.055       21.055       21.055      271.055           90           90           90    120162.21   0.27873511   -1972.1515   -1989.9813   -366.27021    4.4536854    7.6171453   -13.988168    -1442.801 
  198300    166.06741   -147969.37    496.00543   -147473.37   -149922.43    5771.0099   -94982.643   -147970.38    0.6348393   0.36961676            0            0    1.0044561   -58758.744            0       21.055       21.055      271.055       21.055       21.055      271.055           90           90           90    120162.21   0.27873511   -1992.6745   -2074.9495   -124.92465    2.0028508   -18.278747   -5.2660688   -1397.5162 
  198350    161.39931   -147952.38    482.06289   -147470.32   -149581.27    5843.7332   -95038.426   -147952.77   0.39024881 0.0043513347            0            0   0.39460015   -58758.081            0       21.055       21.055      271.055       21.055       21.055      271.055           90           90           90    120162.21   0.27873511   -1883.5834    -1969.078    238.92117   -9.3535531    4.6528294    -30.55319   -1204.5801 
  198400    171.91821   -147974.14    513.48043   -147460.66   -149653.61    5823.1182   -95040.925   -147975.38    1.0269975   0.20872051            0            0    1.2357181    -58757.57            0       21.055       21.055      271.055       21.055       21.055      271.055           90           90           90    120162.21   0.27873511   -1978.6812   -1914.1347    138.71562   -13.179046   -12.808221   -52.671763   -1251.3667 
  198450    172.20927   -147959.09    514.34976   -147444.74   -149474.11    5858.9419   -95061.721   -147959.94   0.61862241   0.23686866            0            0   0.85549107   -58757.162            0       21.055       21.055      271.055       21.055       21.055      271.055           90           90           90    120162.21   0.27873511   -1927.8582    -1829.036     282.8117    9.8329782    12.671848   -15.534302   -1158.0275 
  198500    172.31938   -147940.41    514.67865   -147425.73   -149344.97    5884.1526   -95067.039   -147940.89   0.48198085 0.0044378532            0            0    0.4864187   -58758.008            0       21.055       21.055      271.055       21.055       21.055      271.055           90           90           90    120162.21   0.27873511   -1793.0201   -1841.1812     348.6562   -14.747883     9.298562   -9.0328625   -1095.1817 
  198550    174.22216   -147940.63    520.36181   -147420.26   -149738.59    5795.7672   -94977.723   -147940.99   0.13343982   0.22797284            0            0   0.36141265   -58759.032            0       21.055       21.055      271.055       21.055       21.055      271.055           90           90           90    120162.21   0.27873511   -1837.7307   -1959.2131   -171.78416    10.356492   -30.434762   -79.362889   -1322.9093 
  198600     176.4237   -147949.36     526.9373   -147422.42   -149745.94    5796.4241   -94986.708   -147949.97   0.61226323 0.0013236297            0            0   0.61358685   -58759.689            0       21.055       21.055      271.055       21.055       21.055      271.055           90           90           90    120162.21   0.27873511   -1985.5555   -1900.7965   -91.274368    8.4386568   -20.039787   -76.848593   -1325.8755 
  198650    177.46691   -147958.46    530.05313   -147428.41   -149935.78     5753.604   -94953.983   -147958.91   0.33950588   0.10912485            0            0   0.44863073   -58758.532            0       21.055       21.055      271.055       21.055       21.055      271.055           90           90           90    120162.21   0.27873511   -1970.9083   -2008.8469    -312.6043    26.072528   -15.134672   -70.437033   -1430.7865 
  198700    171.87865   -147950.59    513.36229   -147437.23   -150013.68    5745.1869   -94938.718   -147951.79   0.87683792   0.32230549            0            0    1.1991434    -58758.26            0       21.055       21.055      271.055       21.055       21.055      271.055           90           90           90    120162.21   0.27873511    -1943.043   -2046.3266   -421.25315    4.7584246    24.809012   -5.1117791   -1470.2076 
  198750    161.22592   -147929.12    481.54502   -147447.57   -149482.77    5864.5099   -95035.515   -147929.36  0.079606115   0.16459992            0            0   0.24420604   -58758.354            0       21.055       21.055      271.055       21.055       21.055      271.055           90           90           90    120162.21   0.27873511   -1836.4392   -1889.8591    242.24784   -10.786093    18.662779    46.336067   -1161.3501 
  198800    162.57782   -147942.77    485.58284   -147457.19   -149438.17    5872.9939   -95058.285   -147943.47   0.11845037   0.57679932            0            0   0.69524969   -58758.176            0       21.055       21.055      271.055       21.055       21.055      271.055           90           90           90    120162.21   0.27873511   -1814.3039   -1855.0214    278.09378    1.3241056   -19.660486    41.801997   -1130.4105 
  198850    169.11919   -147968.52     505.1204    -147463.4    -149465.4    5863.7456   -95074.356   -147969.72   0.38725324    0.8140363            0            0    1.2012895   -58759.112            0       21.055       21.055      271.055       21.055       21.055      271.055           90           90           90    120162.21   0.27873511   -1849.7672   -1874.2766    296.83335   -8.1369183   -20.262526    14.416938   -1142.4035 
  198900    169.36346   -147972.15       505.85    -147466.3   -149370.52    5885.7795   -95099.048   -147973.13   0.51581167   0.46051943            0            0    0.9763311   -58759.858            0       21.055       21.055      271.055       21.055       21.055      271.055           90           90           90    120162.21   0.27873511   -1858.9291   -1793.5937    392.69675   -16.396312    11.267623    12.979436   -1086.6087 
  198950    166.88829   -147962.47    498.45721   -147464.02   -149768.49    5800.6762   -95004.815   -147962.93   0.38798837  0.065486569            0            0   0.45347494   -58758.789            0       21.055       21.055      271.055       21.055       21.055      271.055           90           90           90    120162.21   0.27873511    -1961.861   -1927.7694   -55.393765   -16.784933   -7.6664676    29.308712    -1315.008 
  199000    165.39809   -147948.56    494.00632   -147454.56   -149968.89    5756.8757   -94946.683   -147948.57 0.0030892044 3.0875596e-05            0            0   0.00312008    -58758.76            0       21.055       21.055      271.055       21.055       21.055      271.055           90           90           90    120162.21   0.27873511   -1877.7327   -2072.3925   -354.14358     20.43867    1.9616306    17.703753   -1434.7562 
  199050    168.00853   -147939.75     501.8031   -147437.95   -149868.79    5775.5918   -94958.857   -147940.93   0.83080737   0.35137625            0            0    1.1821836   -58757.667            0       21.055       21.055      271.055       21.055       21.055      271.055           90           90           90    120162.21   0.27873511   -1921.5618   -2008.3155   -231.47891    -8.841463    28.818431    25.849067   -1387.1187 
  199100    171.64784   -147936.36    512.67292   -147423.69   -149914.28     5759.073   -94937.049   -147936.42  0.013285574  0.048129097            0            0  0.061414671   -58758.448            0       21.055       21.055      271.055       21.055       21.055      271.055           90           90           90    120162.21   0.27873511   -1920.3949   -1977.4271   -365.80473  -0.91756862    59.824079    63.258054   -1421.2089 
  199150    176.23292   -147945.54    526.36748   -147419.17   -149620.64     5822.483   -95011.748   -147947.63     1.110935   0.97891608            0            0    2.0898511   -58758.362            0       21.055       21.055      271.055       21.055       21.055      271.055           90           90           90    120162.21   0.27873511   -1880.9134   -1888.2275   0.45447982    8.3937987    6.4149729    62.316614   -1256.2288 
  199200    177.12445   -147950.51     529.0303   -147421.48    -149315.4    5883.3577   -95075.411   -147950.55 0.00056347284  0.039613409            0            0  0.040176881   -58758.495            0       21.055       21.055      271.055       21.055       21.055      271.055           90           90           90    120162.21   0.27873511   -1745.7767   -1921.3005    424.87515    4.5412256   -19.782952   -9.1691241    -1080.734 
  199250    176.16349   -147954.75    526.16014   -147428.59   -149492.97    5853.1935   -95051.672   -147956.77    1.5615826   0.45669863            0            0    2.0182812   -58758.295            0       21.055       21.055      271.055       21.055       21.055      271.055           90           90           90    120162.21   0.27873511   -1876.1506   -1889.5671    231.72323    -12.25761   -22.331033   -55.882226   -1177.9982 
  199300    171.14749   -147948.58    511.17848    -147437.4   -149477.34    5853.7394   -95043.515   -147948.87  0.009535837   0.27608407            0            0   0.28561991   -58759.092            0       21.055       21.055      271.055       21.055       21.055      271.055           90           90           90    120162.21   0.27873511   -1813.7021   -1907.6572    229.20196    13.930546   -15.051587   -18.021893   -1164.0525 
  199350    170.07484   -147951.91    507.97472   -147443.94   -149697.76    5812.3689   -95006.153   -147953.44   0.87354067   0.65001007            0            0    1.5235507   -58759.654            0       21.055       21.055      271.055       21.055       21.055      271.055           90           90           90    120162.21   0.27873511   -1954.1864   -1920.6994    16.580609   -5.7165826    28.183851   -33.223339   -1286.1017 
  199400    163.84843   -147937.88    489.37786   -147448.51   -149923.78    5765.9191   -94944.975   -147938.67  0.057667138   0.72626063            0            0   0.78392776   -58759.611            0       21.055       21.055      271.055       21.055       21.055      271.055           90           90           90    120162.21   0.27873511   -1925.5874   -1886.3036   -425.51527    18.999805    54.471946    3.3751506   -1412.4687 
  199450    171.00613   -147960.24    510.75626   -147449.48   -149874.99    5773.9578   -94975.404    -147961.6   0.64050769   0.71700751            0            0    1.3575152   -58760.152            0       21.055       21.055      271.055       21.055       21.055      271.055           90           90           90    120162.21   0.27873511   -1964.2411   -1951.3286   -236.64103   0.36783525   -32.114133    8.4480937   -1384.0702 
  199500    172.66682   -147964.75    515.71635   -147449.04    -149826.7       5780.6   -94986.673   -147965.36  0.026068507   0.57739992            0            0   0.60346842   -58759.285            0       21.055       21.055      271.055       21.055       21.055      271.055           90           90           90    120162.21   0.27873511   -1953.7952   -1933.4379   -183.08237  -0.46487761   -18.548451   -38.545972   -1356.7718 
  199550     167.5869   -147947.75    500.54382    -147447.2   -149731.45    5810.4338   -95001.126   -147949.79    2.0188442  0.020326052            0            0    2.0391702   -58759.095            0       21.055       21.055      271.055       21.055       21.055      271.055           90           90           90    120162.21   0.27873511   -1868.8776   -1999.7348   -41.780255    10.568029   -18.677953   -44.925249   -1303.4642 
  199600    170.89182   -147955.34    510.41485   -147444.93   -149380.05    5876.9606    -95073.98   -147955.57   0.13781498  0.090443126            0            0    0.2282581   -58758.549            0       21.055       21.055      271.055       21.055       21.055      271.055           90           90           90    120162.21   0.27873511   -1856.5652   -1947.2145    491.03895   -9.5048285   -17.088884   -35.426207   -1104.2469 
  199650    172.16641   -147958.11    514.22175   -147443.89   -149566.97     5837.103   -95037.698   -147959.45   0.29441703    1.0516674            0            0    1.3460844   -58758.859            0       21.055       21.055      271.055       21.055       21.055      271.055           90           90           90    120162.21   0.27873511   -1872.2097   -1914.8485    152.56312   -6.4549155   -28.753745    -27.36208   -1211.4984 
  199700    167.95362   -147945.04     501.6391    -147443.4   -149566.01    5839.1033   -95024.626   -147945.54  0.017135005     0.484503            0            0   0.50163801   -58760.015            0       21.055       21.055      271.055       21.055       21.055      271.055           90           90           90    120162.21   0.27873511   -1770.4433   -1906.2851    43.037043    11.774201    18.905222   -5.0779813   -1211.2305 
  199750    168.66544    -147945.8    503.76517   -147442.03   -149646.97    5823.2319   -95011.365   -147947.56   0.76550316   0.99649929            0            0    1.7620025   -58759.427            0       21.055       21.055      271.055       21.055       21.055      271.055           90           90           90    120162.21   0.27873511   -1844.0604   -1954.6768    24.109539    6.9532358    11.486643    63.796011   -1258.2092 
  199800     172.5923    -147952.4    515.49378   -147436.91   -149942.82    5756.3607   -94949.378   -147952.74   0.30390833  0.033448321            0            0   0.33735665   -58759.721            0       21.055       21.055      271.055       21.055       21.055      271.055           90           90           90    120162.21   0.27873511   -1883.1467   -1977.6414   -429.07728   -2.2325416   -17.422808    89.737344   -1429.9551 
  199850    175.70982   -147954.06     524.8051   -147429.25   -149854.48    5773.6153   -94968.921   -147955.08   0.89535755   0.12581868            0            0    1.0211762   -58759.774            0       21.055       21.055      271.055       21.055       21.055      271.055           90           90           90    120162.21   0.27873511   -1941.9314   -2013.4704   -196.34125   -4.5518849   -28.441844    20.469995   -1383.9143 
  199900    170.04775   -147931.24    507.89379   -147423.34   -149453.26    5859.3538   -95032.255   -147932.05  0.032663207   0.78453193            0            0   0.81719514   -58759.153            0       21.055       21.055      271.055       21.055       21.055      271.055           90           90           90    120162.21   0.27873511   -1770.3099   -1788.0756    83.376557    12.454432   -8.8728457   -11.583359   -1158.3363 
  199950    170.65121   -147931.86    509.69619   -147422.16   -149650.09    5816.9729   -94990.212   -147932.94   0.19926837   0.88114935            0            0    1.0804177   -58759.701            0       21.055       21.055      271.055       21.055       21.055      271.055           90           90           90    120162.21   0.27873511   -1908.0683   -1853.1287   -52.784711   -1.2847509    1.0783911    8.0984594   -1271.3272 
  200000    172.62162   -147941.68    515.58135    -147426.1   -149298.77    5891.0487   -95073.362   -147942.59   0.22582115   0.67985953            0            0   0.90568068   -58760.277            0       21.055       21.055      271.055       21.055       21.055      271.055           90           90           90    120162.21   0.27873511   -1813.7993   -1827.3296    435.32425    6.8093882    44.497776    33.621335   -1068.6016 
Loop time of 8996.23 on 1 procs for 200000 steps with 1003 atoms

Pair  time (%) = 1590.46 (17.6792)
Bond  time (%) = 0.739039 (0.00821499)
Kspce time (%) = 7382.36 (82.0607)
Neigh time (%) = 7.02478 (0.0780859)
Comm  time (%) = 7.23495 (0.0804221)
Outpt time (%) = 0.398474 (0.00442935)
Other time (%) = 8.00406 (0.0889713)

Nlocal:    1003 ave 1003 max 1003 min
Histogram: 1 0 0 0 0 0 0 0 0 0
Nghost:    4769 ave 4769 max 4769 min
Histogram: 1 0 0 0 0 0 0 0 0 0
Neighs:    465473 ave 465473 max 465473 min
Histogram: 1 0 0 0 0 0 0 0 0 0

Total # of neighbors = 465473
Ave neighs/atom = 464.081
Ave special neighs/atom = 0.00598205
Neighbor list builds = 875
Dangerous builds = 0
