# LAMMPS data file written by Ovito Basic 3.0.0-dev791
6 atoms
2 atom types
0.0 3.1917879581 xlo xhi
0.0 4.5546679497 ylo yhi
0.0 4.6113810539 zlo zhi

Atoms  # charge

1 1 0.0 0.0 0.0 0.0
2 1 0.0 1.595893979 2.277333975 2.305690527
3 2 0.0 0.0 1.65056622 1.195108533
4 2 0.0 0.0 2.904101849 3.41627264
5 2 0.0 1.595893979 0.626767874 3.500798941
6 2 0.0 1.595893979 3.927900076 1.110581994
