LAMMPS data file via write_data, version 12 Dec 2018, timestep = 16600000

5680 atoms
3 atom types

7.6569808907646546e+01 1.1543019109235183e+02 xlo xhi
7.6569808907646546e+01 1.1543019109235183e+02 ylo yhi
7.6569808907646546e+01 1.1543019109235183e+02 zlo zhi

Masses

1 1.008
2 12
3 14

Atoms # charge

3070 1 1.3075688402275235e-01 7.9837239912890780e+01 8.2004812816260667e+01 7.8579342878399729e+01 0 0 0
3069 2 -9.2461378057693819e-02 7.9141879081420413e+01 8.2278250046315861e+01 7.7782666474328479e+01 0 0 0
3075 1 5.6579719389313554e-02 7.9647914672725207e+01 7.9760836999051136e+01 7.8391392056009892e+01 0 0 0
3247 1 1.0652636921212290e-01 8.0120566081069327e+01 7.8907699186096139e+01 8.2334247848651884e+01 0 1 0
3241 2 -7.2838487357223133e-02 8.1273693396522532e+01 7.7879019075971371e+01 8.0265064875274746e+01 0 1 0
3242 1 7.0298867255686209e-02 8.0756450141277597e+01 7.8723881792273360e+01 7.9938858564834874e+01 0 1 0
3256 2 1.1399989225864304e-01 7.8415924160332409e+01 8.0501538120510986e+01 8.1931837756084661e+01 0 1 0
3257 3 -2.1576756542385686e-01 7.9034430324536686e+01 8.1342264400500696e+01 8.1358763357147808e+01 0 1 0
3251 2 -6.1050903737521610e-02 7.7652755424826836e+01 7.9460885157713705e+01 8.2637630234776680e+01 0 1 0
4762 1 1.0300493049491055e-01 8.0726306731272302e+01 8.1243715095869064e+01 8.4134692770503278e+01 0 0 0
3248 2 -1.2864065171669559e-01 7.8155465866526868e+01 7.8160226938926911e+01 8.1921229645929884e+01 0 1 0
3089 2 -6.7223563391608121e-02 7.7319820034043801e+01 7.8332995491773104e+01 7.8085184768841003e+01 0 0 0
3090 1 5.1603874386484852e-02 7.7490922386736685e+01 7.9117118367168445e+01 7.8842041190289905e+01 0 0 0
3246 2 -8.4710390889888174e-02 7.9677562892750359e+01 7.7971735974086357e+01 8.2299007521088029e+01 0 1 0
3074 2 -6.5478670838837835e-02 7.9369892165094342e+01 7.9734023886760113e+01 7.7352649469553839e+01 0 0 0
4764 1 1.3538267295841580e-01 8.1724925710447110e+01 8.1661775442094125e+01 8.1667028432924113e+01 0 0 0
3249 1 8.0227107613160792e-02 7.8026723967633316e+01 7.8272378191993354e+01 8.0864921553638453e+01 0 1 0
3253 2 -2.2520174341497376e-01 7.7835788336614186e+01 7.9308517471734845e+01 8.4189966448196657e+01 0 1 0
4760 2 -1.3785733294259100e-01 8.1470561679708297e+01 8.1945615784937644e+01 8.3903838362003341e+01 0 0 0
3243 2 -1.4689118458205333e-01 8.0462092540319631e+01 7.7015875767253618e+01 8.1309447819693602e+01 0 1 0
3258 2 1.1967133997894107e-01 7.9901013285747965e+01 7.7214186945076207e+01 8.3595548466569312e+01 0 1 0
3067 1 1.0717726473672229e-01 7.7485349407531757e+01 8.2361943191442009e+01 7.9279945807241020e+01 0 0 0
3238 2 -1.3656976422256301e-01 8.1360507882431705e+01 7.7043169535278437e+01 7.8881274989164709e+01 0 1 0
3071 2 -1.1883028355121010e-01 7.8499352866190222e+01 8.0995931985934291e+01 7.7111962010505152e+01 0 0 0
3254 1 1.4277495024941173e-01 7.8856537615480320e+01 7.9352502068072027e+01 8.4535256290149476e+01 0 1 0
3250 1 8.5469850205087711e-02 7.7545887378046856e+01 7.7302605599196497e+01 8.2194095738232022e+01 0 1 0
3072 1 5.2781775975964271e-02 7.7494967989559996e+01 8.0726371820765692e+01 7.7461158693164847e+01 0 0 0
3076 2 -1.4798593838847129e-01 7.8513625331017963e+01 7.8452692261901532e+01 7.7100525633954121e+01 0 0 0
5529 3 -1.5427731545003934e-01 8.1591464255358886e+01 7.7762300054792462e+01 8.5336830735969357e+01 0 1 0
4763 2 -8.9548840438876773e-02 8.2307106104493869e+01 8.1666703730690585e+01 8.2573728802521771e+01 0 0 0
3266 1 8.6704831332704485e-02 7.7489810206979186e+01 7.8315810521470851e+01 8.4522585011082583e+01 0 1 0
3259 3 -2.1903590047658808e-01 8.0181805105952805e+01 7.6712176873501079e+01 8.4613392643998452e+01 0 1 0
3239 1 1.1378767464051535e-01 8.1772485164443765e+01 7.7699776801545809e+01 7.8108117903831882e+01 0 1 0
3240 1 8.2954076817444461e-02 8.0320413674953869e+01 7.6866234912581035e+01 7.8618327287179170e+01 0 1 0
3122 2 1.2778972607148831e-01 7.7375775488975165e+01 7.7022757431439288e+01 7.8768654099431828e+01 0 0 0
5528 2 1.1597614116705368e-01 8.2498268394726438e+01 7.7167157679272265e+01 8.5803398299335029e+01 0 1 0
4788 3 -1.7813267216377965e-01 8.2779374935170125e+01 8.1743660204183868e+01 7.9331107408305215e+01 0 0 0
3066 2 -1.1579204066481123e-01 7.7843737677359741e+01 8.3015483698597066e+01 7.8459580226515655e+01 0 0 0
4792 3 -1.9401051449719969e-01 7.8610053891468652e+01 8.2873909383864174e+01 8.2267466934377708e+01 0 0 0
3068 1 6.3772578483739614e-02 7.7064555488330015e+01 8.3040123490560561e+01 7.7748094637534280e+01 0 0 0
4761 1 1.0196816239548870e-01 8.2133155142109089e+01 8.2036775279529252e+01 8.4736182178081535e+01 0 0 0
3260 2 1.1047436609459152e-01 8.2581598857826990e+01 7.8222593928163761e+01 8.0809914784908869e+01 0 1 0
3255 1 8.7676956949922433e-02 7.7210061980288728e+01 8.0066493227005395e+01 8.4694186655127481e+01 0 1 0
3078 1 1.1295919465807736e-01 7.9063564520201083e+01 7.7552715853328579e+01 7.7287983658250752e+01 0 0 0
4789 2 1.2078133515136145e-01 8.3003849344153153e+01 8.0378191364268361e+01 8.2748572748118661e+01 0 0 0
3079 2 1.2385461266043264e-01 8.0597984183050201e+01 7.9878891723944889e+01 7.6580323480360505e+01 0 0 0
5440 2 -1.1778570599521763e-01 8.8002631645730546e+01 7.8547354995673075e+01 8.6260048010986822e+01 0 1 0
4693 2 -7.1767207523715321e-02 8.5624304628316281e+01 8.1968800294795130e+01 7.6855698676303135e+01 0 0 0
4688 2 -1.3484697753802566e-01 8.8088938573193246e+01 8.2361126522763158e+01 7.6664548426539639e+01 0 0 0
4720 3 -1.7152393380633577e-01 8.3853955348494409e+01 8.0631365900642493e+01 7.8283318931367461e+01 0 0 0
4790 3 -1.4692909521234140e-01 8.3586287945883242e+01 7.9361897918336538e+01 8.2872865599511044e+01 0 0 0
3261 3 -1.2250187090941672e-01 8.3650226763354539e+01 7.8497206621605343e+01 8.1262367014377659e+01 0 1 0
5439 1 1.0267432616761873e-01 8.7518350485253137e+01 7.8134301703383827e+01 8.4148178817028551e+01 0 1 0
4719 2 9.7810830447559838e-02 8.4649849340103898e+01 8.1216912479288723e+01 7.7648767044153175e+01 0 0 0
5467 3 -1.7173784597137470e-01 8.7451800396184964e+01 7.9085782600762826e+01 8.1356980905654410e+01 0 1 0
5466 2 1.0295102112572051e-01 8.8404186381416864e+01 7.8824135174430239e+01 8.1997504047367869e+01 0 1 0
4771 1 1.6556733148435271e-01 8.5452254532333924e+01 8.1303362305582439e+01 8.2069817403281988e+01 0 0 0
4776 1 9.2648308887426131e-02 8.8267023643013516e+01 8.1290691885718971e+01 8.2405255256466674e+01 0 0 0
5426 3 -1.8169112014201733e-01 8.7170798370631914e+01 7.8343795547373333e+01 7.9701650785862128e+01 0 1 0
5438 2 -9.5780052104421268e-02 8.7935956334648409e+01 7.8922492140381721e+01 8.4691956581574203e+01 0 1 0
5464 2 1.1831531513829302e-01 8.7060464431791857e+01 8.0145365839422283e+01 8.4650928376434081e+01 0 1 0
5425 2 1.1371545924287887e-01 8.8151199538491056e+01 7.7821945164761715e+01 7.9354238871971717e+01 0 1 0
5465 3 -2.2008611675965667e-01 8.6375254914334292e+01 8.1093597623453618e+01 8.4615064427438142e+01 0 1 0
4692 1 7.6777805857658143e-02 8.7072812298525051e+01 8.1464742812950476e+01 7.8353996642007488e+01 0 0 0
4772 1 1.2180572240429266e-01 8.5806572907565169e+01 8.1658519284443031e+01 8.0396533342359135e+01 0 0 0
3234 1 1.1145590748701131e-01 8.3805709128854545e+01 7.7242935865488604e+01 7.8778341675990461e+01 0 1 0
4777 1 8.9882537440635318e-02 8.8378515210130075e+01 8.1892358815441739e+01 8.0716696502840449e+01 0 0 0
4770 2 -1.6401232083067768e-01 8.5629273023624478e+01 8.2088134557197762e+01 8.1403191129463480e+01 0 0 0
4775 2 -1.1974651730665174e-01 8.8240105951155499e+01 8.2214074157769204e+01 8.1751645676043950e+01 0 0 0
1738 3 -1.9757633793866880e-01 8.4801720947468141e+01 8.0923765833491842e+01 8.5757169806908280e+01 0 0 0
5435 2 -1.1677538204784854e-01 8.9428462071379414e+01 7.9128681401851807e+01 8.4207349410112244e+01 0 1 0
4781 1 8.3855152315465004e-02 8.8892704733231568e+01 8.2878992317439980e+01 8.4247263399686176e+01 0 0 0
4787 2 1.2219982549018261e-01 8.3427236526492493e+01 8.2246696911401131e+01 8.0167130990083734e+01 0 0 0
4689 1 6.2065475760235939e-02 8.8859784516153752e+01 8.2662217358162366e+01 7.7446760077858102e+01 0 0 0
4690 2 -1.0380907652747220e-01 8.6990320484391816e+01 8.1403681489540418e+01 7.7288060043291011e+01 0 0 0
4691 1 6.0103448244871009e-02 8.7197303030501303e+01 8.0371428422428778e+01 7.6995234098623371e+01 0 0 0
5538 1 1.3431029399723540e-01 8.4940442027906414e+01 7.8002836921473616e+01 8.5457095285090361e+01 0 1 0
4694 1 7.8022978057511183e-02 8.5615721411486106e+01 8.3003450211545399e+01 7.7196929657099290e+01 0 0 0
4767 1 9.7953761455350841e-02 8.4145768982780808e+01 8.2589509293724305e+01 8.3349802032223209e+01 0 0 0
4765 2 -1.1493264832904980e-01 8.3470187373797089e+01 8.2792973159223379e+01 8.2570965514253061e+01 0 0 0
4768 2 -6.5446724364601111e-02 8.4278930952018484e+01 8.2861059663354865e+01 8.1198486669807664e+01 0 0 0
5413 2 -9.7167164422731364e-02 8.9443668372563693e+01 7.7160881823867683e+01 7.8941383598901638e+01 0 1 0
5407 1 8.1417362747612410e-02 8.7051556741873895e+01 7.7135571187004615e+01 7.7103729257935171e+01 0 1 0
4773 2 -7.4030313905445497e-02 8.6860387784857664e+01 8.2878320718950874e+01 8.1943567795141718e+01 0 0 0
5525 2 -2.4275157784168552e-01 8.4868123952562428e+01 7.6908522032279976e+01 8.5531311859484759e+01 0 1 0
4211 1 1.0739173117373203e-01 9.5754634362870107e+01 7.7709143943225982e+01 7.7498476688675893e+01 0 1 1
5433 2 -7.1483522436148028e-02 8.9575635158695803e+01 7.8494704289896347e+01 8.2789244208572228e+01 0 1 0
5434 1 5.7347652584809283e-02 8.9689142362187553e+01 7.7417568978915341e+01 8.2820930967833888e+01 0 1 0
5437 1 6.2558870749796491e-02 8.9609015168083005e+01 8.0222299375430794e+01 8.4279863550693790e+01 0 1 0
5417 1 1.1482573562268920e-01 9.1314211160127982e+01 7.6766061557030966e+01 7.9833515938627372e+01 0 1 0
412 1 9.9768904471007322e-02 9.5632013020088891e+01 8.0117311722713694e+01 8.1677213848888570e+01 0 0 0
411 2 -7.1863896686487655e-02 9.5490449672076934e+01 8.0231307228851250e+01 8.2731809380581367e+01 0 0 0
405 1 9.7331980103527685e-02 9.4778665463102413e+01 7.7089660726511752e+01 8.5847823852821477e+01 0 0 0
5412 1 9.9575667172990323e-02 8.9711006367886966e+01 7.8985884063668536e+01 7.7630277893962386e+01 0 1 0
5410 2 -1.3940682849148550e-01 8.9917345004680840e+01 7.7893485830458459e+01 7.7590950947156841e+01 0 1 0
5446 1 7.0785302045064641e-02 9.0372614646814014e+01 7.6740441292563702e+01 8.5757123438900777e+01 0 1 0
5436 1 9.1101798777457735e-02 9.0125130560291396e+01 7.8643766325226764e+01 8.4920120440427098e+01 0 1 0
406 2 -8.1029412930741701e-02 9.5212264999368230e+01 7.9034549765470814e+01 8.4963997228191388e+01 0 0 0
5419 1 9.5877114593946655e-02 9.0078395610080790e+01 7.9399278044021415e+01 8.0100306576568215e+01 0 1 0
5415 2 -1.3303605867126769e-01 9.0427281585970320e+01 7.7315476141468906e+01 8.0174697751818940e+01 0 1 0
419 3 -2.2408203953343461e-01 9.2650546749082622e+01 7.9319763359702122e+01 8.5467036532293591e+01 0 0 0
4216 3 -2.2159943365316781e-01 9.4460774809363471e+01 7.8167992220280070e+01 8.0321842903054105e+01 0 1 1
5418 2 -7.6587504869374559e-02 9.0800914362814467e+01 7.8810290540860308e+01 8.0592022534163675e+01 0 1 0
5422 1 5.5257799601603985e-02 9.1131375319825267e+01 8.0062369499607101e+01 8.2337431537143303e+01 0 1 0
5420 2 -1.0280290482768389e-01 9.0920964141914553e+01 7.8954929721488327e+01 8.2150747575556281e+01 0 1 0
5423 2 1.0637858227601203e-01 9.2146453162603422e+01 7.9062657095910367e+01 8.0020721902145596e+01 0 1 0
5424 3 -1.2688472162071562e-01 9.3229492254204473e+01 7.9256945681834651e+01 7.9577390207792860e+01 0 1 0
418 2 1.2220503342487989e-01 9.3797000388131565e+01 7.9188510156241406e+01 8.5237879813561520e+01 0 0 0
5421 1 6.6991516026028708e-02 9.1822132368717547e+01 7.8581041526631651e+01 8.2704078124059464e+01 0 1 0
413 2 -1.9654472355318428e-01 9.4085562700897412e+01 8.1022331622670066e+01 8.2962491979708105e+01 0 0 0
426 1 1.0158548499248125e-01 9.3946090039056642e+01 8.1972200463299345e+01 8.2347990009737330e+01 0 0 0
414 1 9.5556141423641022e-02 9.3153493229894551e+01 8.0430003571742063e+01 8.2727538159991369e+01 0 0 0
415 1 1.1958264949320116e-01 9.3985343479544014e+01 8.1416894550632975e+01 8.4009669589670906e+01 0 0 0
4215 2 1.4149968531300183e-01 9.5254960502528405e+01 7.7896409149551943e+01 7.9490246978987670e+01 0 1 1
5411 1 1.3518208605423185e-01 9.0998019545738103e+01 7.7778768608025402e+01 7.7641560365335081e+01 0 1 0
4782 1 6.7420322506254321e-02 9.0249728816673979e+01 8.2023442078761065e+01 8.3806147136222080e+01 0 0 0
410 1 1.0913025023088845e-01 9.4787409542386484e+01 7.8120998361864551e+01 8.3015359793447601e+01 0 0 0
403 2 -1.2340474505358928e-01 9.5625190997277826e+01 7.7760568284158722e+01 8.5800401569366173e+01 0 0 0
4784 3 -1.9232156373131035e-01 9.1371376807578869e+01 8.2807307608791078e+01 8.0339274133513683e+01 0 0 0
407 1 9.2590603772985600e-02 9.5755384749877066e+01 7.9967792829172808e+01 8.5192256420854562e+01 0 0 0
408 2 -1.3133027027333202e-01 9.5460879568823145e+01 7.8823979767788856e+01 8.3452923764844954e+01 0 0 0
1661 2 1.4018499754936800e-01 9.2928611850527503e+01 8.1836813228942134e+01 7.6775931404517621e+01 0 0 1
4780 2 -1.1637558302992798e-01 8.9834969793431569e+01 8.2988267251234589e+01 8.3684418570889079e+01 0 0 0
1662 3 -1.2801114941619199e-01 9.2988491247532991e+01 8.0681696288041806e+01 7.6999946499419707e+01 0 0 1
5416 1 8.2165891222768891e-02 9.0094130133963631e+01 7.6760832546999836e+01 8.1017746211464697e+01 0 1 0
4783 2 1.1204781756741695e-01 9.0504045109688548e+01 8.2980545686760223e+01 8.1121144891477883e+01 0 0 0
1653 1 1.1051450366211724e-01 9.0894826166005700e+01 8.2949669676494040e+01 7.7438752788657354e+01 0 0 1
4746 1 7.9859790607709230e-02 8.0662635255650130e+01 8.3267137141941561e+01 8.5809109602056012e+01 0 0 0
3081 2 1.3083096200441341e-01 7.9725674705790652e+01 8.3100071591012821e+01 7.6701472961937483e+01 0 0 0
4715 2 1.0652084292329284e-01 8.2418098267731452e+01 8.4872417994824985e+01 7.6661054477263676e+01 0 0 0
4716 3 -2.0239072189985888e-01 8.1238009580794213e+01 8.4994948180161003e+01 7.6731696586631315e+01 0 0 0
1518 3 -2.0362307517714207e-01 7.8295846547070326e+01 8.9195274567703663e+01 7.7190084928047042e+01 0 0 0
3062 1 1.1811936568406553e-01 7.8610092186095883e+01 8.5238651316372255e+01 7.7254110699655030e+01 0 0 0
4791 2 1.3374962786386621e-01 7.9609985344248742e+01 8.3085749240322201e+01 8.2866687144593712e+01 0 0 0
4685 3 -1.9592596479379687e-01 8.0670455548350176e+01 8.8574284219327410e+01 8.4495870861346503e+01 0 0 0
4758 2 -8.1649011453670123e-02 8.0815031788752478e+01 8.3362883377408764e+01 8.3645153632936967e+01 0 0 0
1462 2 -6.8429811467020596e-02 7.6837792915751578e+01 8.7899628145234189e+01 8.4242630581640753e+01 0 0 0
1466 1 8.8800255550455481e-02 7.7377773530350254e+01 8.6284292623238258e+01 8.2814695589124796e+01 0 0 0
1488 2 1.1682919126393577e-01 7.7289826125351567e+01 8.7041961098829944e+01 8.5432339212109596e+01 0 0 0
1467 2 -6.8627020808346387e-02 7.7225757423006570e+01 8.8197311793692052e+01 8.1757084828378865e+01 0 0 0
3065 1 1.0705655652218099e-01 7.7430387824107470e+01 8.4575911094885782e+01 7.9946971071696240e+01 0 0 0
4744 1 1.0356059196645474e-01 8.1679336716673660e+01 8.5855465495172936e+01 8.4396546779402826e+01 0 0 0
4759 1 1.0215333065840936e-01 8.1533358549874961e+01 8.3932327503196262e+01 8.3043960027171067e+01 0 0 0
1469 2 -1.3064968276774167e-01 7.8256331538097427e+01 8.8082320292315472e+01 8.0625853228504212e+01 0 0 0
3084 3 -1.8056694817786595e-01 8.0504520867611419e+01 8.4264892071669919e+01 8.0159076544420643e+01 0 0 0
3083 2 1.4243168437953099e-01 7.9435068962557182e+01 8.4303180479218767e+01 7.9700317505002417e+01 0 0 0
3063 1 1.0440899175721768e-01 7.8251328912022757e+01 8.6493201918024397e+01 7.8425619359119381e+01 0 0 0
1464 2 -1.5295364421434873e-01 7.7599086324894230e+01 8.7316719908641929e+01 8.2993569497220221e+01 0 0 0
4757 3 -1.9828603974125217e-01 8.1112160135506016e+01 8.5755539894612809e+01 8.1270928923756486e+01 0 0 0
4756 2 1.1614390686127475e-01 8.2166088353178196e+01 8.6071254061342358e+01 8.0844771517638293e+01 0 0 0
3061 2 -1.3777100758364527e-01 7.7932567616991051e+01 8.5503387729127581e+01 7.8069233250880757e+01 0 0 0
3064 2 -7.5335122201939442e-02 7.8100194552695100e+01 8.4357788375065255e+01 7.9112722223338423e+01 0 0 0
1470 1 1.0250994639395682e-01 7.8637484804387370e+01 8.7071757047678659e+01 8.0562833298510483e+01 0 0 0
1465 1 1.4601852972475779e-01 7.8689070042714604e+01 8.7369726229266419e+01 8.3082943446591756e+01 0 0 0
1471 1 9.7981942442315492e-02 7.7753350684077986e+01 8.8180119089142110e+01 7.9636152758678335e+01 0 0 0
4745 2 -1.4387871409261666e-01 8.0583118798204282e+01 8.4041236252005191e+01 8.5053014479908740e+01 0 0 0
4743 2 -8.5215727480898076e-02 8.1624147106381145e+01 8.5245337154722975e+01 8.5282033565327708e+01 0 0 0
1485 3 -1.9376003602450967e-01 8.1076749162045800e+01 8.8363796307201241e+01 8.2726301414726592e+01 0 0 0
4747 1 1.1836177935121348e-01 7.9636323421986148e+01 8.4415641855859008e+01 8.5156611462529767e+01 0 0 0
4711 1 1.0812908855188387e-01 8.2495250883257597e+01 8.6769667678973178e+01 7.8456886806203713e+01 0 0 0
3049 3 -2.0371105264212272e-01 7.9895694408433528e+01 8.8261404997096662e+01 7.7094536153556234e+01 0 0 0
1468 1 6.0331457988229996e-02 7.7147206032902574e+01 8.9196941936444588e+01 8.2090618566018321e+01 0 0 0
1484 2 1.2446649956735181e-01 8.0337317588090414e+01 8.8720702114234399e+01 8.1880331310453499e+01 0 0 0
1472 2 -8.0353789056816727e-02 7.9414848167234467e+01 8.9176473938309783e+01 8.0826652393793566e+01 0 0 0
1461 1 1.0888054824929159e-01 7.8149441319161767e+01 8.9477471405482987e+01 8.5143186797570948e+01 0 0 0
1473 1 1.1477874631811444e-01 7.9921574769645275e+01 8.9330395139418982e+01 7.9870551962648506e+01 0 0 0
4740 2 -1.2204964931571678e-01 8.2989895672320856e+01 8.4699777893168772e+01 8.5865726961449553e+01 0 0 0
1459 2 -1.2748128284834906e-01 7.7320420731038695e+01 8.9414354156823819e+01 8.4526379020887376e+01 0 0 0
4739 1 8.2159622115072078e-02 8.3637747802343938e+01 8.6826704816658719e+01 8.5965695796537275e+01 0 0 0
3028 1 9.2025771109963364e-02 8.3132673643163642e+01 8.9327658836508803e+01 7.6869218162116425e+01 0 0 0
4754 2 1.3924211033634956e-01 8.4154847495646578e+01 8.9444030125268625e+01 8.2556322178339386e+01 0 0 0
4712 1 1.1200159517573603e-01 8.3070230535289866e+01 8.5137021181282620e+01 7.8518477664776029e+01 0 0 0
4727 1 1.2533302567300811e-01 8.3082361569584634e+01 8.8602414258963591e+01 8.0568163219136622e+01 0 0 0
4738 2 -8.2062957613837278e-02 8.4095306431865552e+01 8.5898003192431432e+01 8.5811568419838252e+01 0 0 0
4741 1 7.5337074071974958e-02 8.3271476272478068e+01 8.3850324134997038e+01 8.5285732268965418e+01 0 0 0
4774 1 8.6804601634519044e-02 8.6766408539276284e+01 8.3061049384513709e+01 8.3021126977110853e+01 0 0 0
4766 1 3.6840409518180850e-02 8.3061615992714067e+01 8.3787610628803151e+01 8.2786088952893920e+01 0 0 0
4729 1 1.0689071128376577e-01 8.3429450868002220e+01 8.7481494951983777e+01 8.2854122775292282e+01 0 0 0
4710 2 -1.3415047235103186e-01 8.3358620883801976e+01 8.6148719710896131e+01 7.8806235838216878e+01 0 0 0
983 1 9.1104565604949034e-02 8.9470241305412557e+01 8.8627507361628261e+01 7.9746601405725755e+01 0 0 0
981 2 -2.4360909593574154e-01 8.8386083078678325e+01 8.8521516126521817e+01 8.0049227600168351e+01 0 0 0
994 1 1.3174274406220099e-01 8.8359492096590145e+01 8.7728289261173813e+01 8.0740732285908138e+01 0 0 0
4723 2 -7.3317072751796442e-02 8.3504236537725248e+01 8.6445460293984070e+01 8.0300233465738060e+01 0 0 0
4732 1 1.0108406683747641e-01 8.6483816186444983e+01 8.7804302207563310e+01 8.2287399876006575e+01 0 0 0
4736 1 5.3759840001847498e-02 8.4114397270883600e+01 8.5809980755795976e+01 8.3675221242589743e+01 0 0 0
4725 2 -1.4351433230594329e-01 8.3928156511759312e+01 8.7894191427077516e+01 8.0699942387336662e+01 0 0 0
4753 3 -1.8684757148220826e-01 8.8154456284463535e+01 8.7022663506351492e+01 8.4895205416249240e+01 0 0 0
4769 1 6.8471502515600260e-02 8.4522728116223874e+01 8.3923206094328805e+01 8.1044240245802172e+01 0 0 0
4726 1 9.6287519831074461e-02 8.4774281416913482e+01 8.8224600118159955e+01 8.0207240534243269e+01 0 0 0
4728 2 -9.2787124400829493e-02 8.4184493244753099e+01 8.7997000276375886e+01 8.2305969466295863e+01 0 0 0
4709 1 6.6286497380399850e-02 8.4991345589604407e+01 8.7504942431288825e+01 7.8211304927361482e+01 0 0 0
4724 1 7.4130634612771612e-02 8.4217420310569068e+01 8.5853700726854640e+01 8.0723000561888028e+01 0 0 0
4708 2 -7.5182343066655694e-02 8.4756836349018471e+01 8.6440376674054079e+01 7.8023331692692693e+01 0 0 0
4713 2 1.0832085611301143e-01 8.5825184910372954e+01 8.5549807803958842e+01 7.8531233966084514e+01 0 0 0
4714 3 -2.3437308224391729e-01 8.6681868963065654e+01 8.4812303498442446e+01 7.8887715805505323e+01 0 0 0
4734 1 5.4403330810061039e-02 8.5031169811180206e+01 8.8079813330482892e+01 8.4580081098430114e+01 0 0 0
4735 2 -1.1895519606228068e-01 8.4864964858669708e+01 8.5848077362607413e+01 8.4416882545778890e+01 0 0 0
4785 2 1.3449371223434489e-01 8.6919793980559945e+01 8.4175171882832544e+01 8.1275732982362413e+01 0 0 0
4733 2 -5.5973448779253615e-02 8.5609318874245702e+01 8.7191342568372775e+01 8.4147624272410297e+01 0 0 0
4752 2 1.1422252618386822e-01 8.7017574544845047e+01 8.7124763129005785e+01 8.4579400223566225e+01 0 0 0
4786 3 -2.4590825996011245e-01 8.6984349113979675e+01 8.5214009816974368e+01 8.0768547805371853e+01 0 0 0
4731 1 1.0355742719582442e-01 8.5603915579212412e+01 8.6305554228975353e+01 8.2238095771427808e+01 0 0 0
4730 2 -1.4142536410126672e-01 8.5614181742373404e+01 8.7295240887364884e+01 8.2638503801227884e+01 0 0 0
4737 1 9.2226609947041252e-02 8.5477577568052581e+01 8.4945710068533756e+01 8.4379717869623960e+01 0 0 0
4827 3 -2.0243292421711417e-01 8.9393586851272303e+01 8.6405316561678006e+01 8.3538592452594031e+01 0 0 0
1657 1 9.5003244625718727e-02 8.9364012664713684e+01 8.5350232162551620e+01 7.7950176071708000e+01 0 0 1
982 1 1.1471829202330698e-01 8.7777647837374644e+01 8.8252685519475961e+01 7.9224087666590393e+01 0 0 0
4779 1 1.1708197038616901e-01 8.9093389510965920e+01 8.4249449880912721e+01 8.2159673777512111e+01 0 0 0
4704 1 5.8690519195570182e-02 8.4303765068822713e+01 8.4041852507791219e+01 7.7334233575639487e+01 0 0 0
4778 2 -8.7684223899096789e-02 8.9438292775495427e+01 8.3202850211028249e+01 8.2147751813118361e+01 0 0 0
4657 1 6.0060080507276806e-02 8.3816651644284150e+01 8.9313148272335098e+01 8.6189061347710478e+01 0 0 0
1651 2 -1.3281361362620098e-01 9.1326542942908262e+01 8.3682444512837691e+01 7.6796317432288276e+01 0 0 1
4807 1 7.9435649129029881e-02 9.3420587672416019e+01 8.8987180767194531e+01 8.2578618863327634e+01 0 0 0
4815 2 -2.0410085217229301e-01 9.3578039459473715e+01 8.7989690407486876e+01 7.8495871282033576e+01 0 0 0
4795 2 -1.2855510596715639e-01 9.2069311842092645e+01 8.4207109458689729e+01 8.3821925543278041e+01 0 0 0
1650 1 1.0442053260139755e-01 9.3538539874958033e+01 8.3821451341569798e+01 7.7025292986403812e+01 0 0 1
4809 1 8.7717032053958005e-02 9.1910956895116101e+01 8.6325386250517312e+01 8.2092743368616240e+01 0 0 0
4813 2 -6.9083805309004806e-02 9.3376760473563380e+01 8.8700667022817399e+01 7.9954211114572402e+01 0 0 0
4810 2 -1.1453202016264441e-01 9.2128123052792475e+01 8.8001992212151137e+01 8.0641750342696199e+01 0 0 0
4828 1 9.5152599625542414e-02 9.4187767681868138e+01 8.8586599069922642e+01 7.7851006287593421e+01 0 0 0
4812 1 8.7092536974135562e-02 9.1415357791439263e+01 8.8754156433877142e+01 8.1043484248250195e+01 0 0 0
4797 1 9.8083603463778299e-02 9.2115568252070219e+01 8.4607255567042216e+01 8.2822067999688102e+01 0 0 0
4826 2 1.0911982310754015e-01 8.9916277291633378e+01 8.5399703071324168e+01 8.3883858653242001e+01 0 0 0
4817 1 8.3023011020948639e-02 9.2652892895278313e+01 8.7815581058474251e+01 7.7951007814466280e+01 0 0 0
4824 2 1.2968745238946192e-01 9.2812737489020094e+01 8.4459799925787024e+01 8.6199002147067318e+01 0 0 0
4820 2 1.1877249371566220e-01 9.3998656317911198e+01 8.6463451312549452e+01 8.1701524017045926e+01 0 0 0
4799 1 7.4278633690218143e-02 9.3961544797080961e+01 8.4963059881167453e+01 8.4458578725498100e+01 0 0 0
1655 1 5.4496011608678216e-02 9.2278091871038882e+01 8.5627661994174176e+01 7.6812863019750637e+01 0 0 1
4821 3 -2.0722963760508273e-01 9.5070888414702310e+01 8.5996427348447085e+01 8.1565687586222225e+01 0 0 0
4796 1 8.3246970850038612e-02 9.2552063939730871e+01 8.3285071486672365e+01 8.3774709876350869e+01 0 0 0
4803 2 -6.5587145567994720e-02 9.3611251716841309e+01 8.7581084087377718e+01 8.4207889779774774e+01 0 0 0
1660 3 -2.0990645359441110e-01 9.2102516708608363e+01 8.4648705586038432e+01 7.9921600456993872e+01 0 0 1
4822 2 1.0368113718700517e-01 9.3932360303235271e+01 8.8695359927896462e+01 8.5121878367898219e+01 0 0 0
1654 2 -6.8521395358994167e-02 9.1485787677400779e+01 8.5114460882717083e+01 7.7373958331216443e+01 0 0 1
4816 1 1.0399285074717579e-01 9.4069452577698144e+01 8.6988646101488072e+01 7.8564655142157548e+01 0 0 0
4808 2 -7.2326706148810732e-02 9.2656028717768194e+01 8.7068215716882179e+01 8.1851711470762694e+01 0 0 0
4802 1 1.2330149064062704e-01 9.2559359453124216e+01 8.6773146116567290e+01 8.6053063166104295e+01 0 0 0
4794 1 1.0096868545090038e-01 9.0560395497837476e+01 8.4006785504386642e+01 8.5361375303076258e+01 0 0 0
4806 1 1.1355724246994482e-01 9.1924486299254994e+01 8.8718629361399934e+01 8.3367161707546771e+01 0 0 0
4804 1 7.8750894165789023e-02 9.4507136130710194e+01 8.7051846190950940e+01 8.3811805514054683e+01 0 0 0
4811 1 7.7479911675616450e-02 9.1568350950616988e+01 8.7488329464200319e+01 7.9916376237943666e+01 0 0 0
4798 2 -6.8351340297868338e-02 9.2935140497176661e+01 8.5103301460680839e+01 8.4848381945878742e+01 0 0 0
4800 2 -1.5272973028748707e-01 9.2527768517387912e+01 8.6612862893922383e+01 8.5034317663211638e+01 0 0 0
1658 1 6.5871519410898555e-02 9.0300422643581101e+01 8.6698298510273531e+01 7.8286506630716559e+01 0 0 1
1659 2 1.1565555208524599e-01 9.1826156348550839e+01 8.4866465982509553e+01 7.8790040729548025e+01 0 0 1
4814 1 1.0357315200051094e-01 9.4245507057628672e+01 8.8610926298215929e+01 8.0482422034037128e+01 0 0 0
1656 2 -1.2580906407374082e-01 9.0154130036485796e+01 8.5951358887494322e+01 7.7537105410953316e+01 0 0 1
4793 2 -7.1084750066099656e-02 9.0621554353880569e+01 8.4169705623076467e+01 8.4303689628585587e+01 0 0 0
4801 1 1.1363346313120548e-01 9.1464206558890965e+01 8.6750918886133860e+01 8.4664068631929325e+01 0 0 0
4805 2 -1.3694058554885596e-01 9.2815060804289189e+01 8.8221837407054167e+01 8.3009163969028876e+01 0 0 0
2673 2 -8.0224966121543603e-02 7.8594780259178322e+01 8.1873563764030891e+01 8.9554849200516955e+01 0 0 0
2674 1 8.8896597206811451e-02 7.9330838110574945e+01 8.1409049288670047e+01 9.0209597838701868e+01 0 0 0
3827 3 -1.3859659130846141e-01 8.1431817264941401e+01 8.0585214028641502e+01 9.4373094155224905e+01 0 0 0
2692 2 1.4013117483909207e-01 7.8497517012097703e+01 8.1062328511234369e+01 8.8333133223534034e+01 0 0 0
1978 2 1.1859695367455594e-01 7.8851191537739396e+01 7.8010542007488112e+01 8.8108013764476368e+01 1 1 0
2687 1 1.1835281995547642e-01 7.8116663280158605e+01 8.0645468142570323e+01 9.3698644774268118e+01 0 0 0
2685 2 -2.2737976811339281e-01 7.7865679318367370e+01 7.9741506226246614e+01 9.3166658046679530e+01 0 0 0
2686 1 9.3726816622336617e-02 7.8381930293802711e+01 7.9766018189272117e+01 9.2194029404907695e+01 0 0 0
2695 3 -2.0223280905793123e-01 8.2402121056066278e+01 8.2637264581719904e+01 8.9208920459726485e+01 0 0 0
1979 3 -1.7266150705054628e-01 7.9541887184763524e+01 7.8923082917818533e+01 8.7853931519745529e+01 1 1 0
2698 1 1.0087201377373733e-01 7.8237393569282403e+01 7.8839992288610489e+01 9.3675478748131752e+01 0 0 0
2693 3 -2.1640087429969992e-01 7.8415951050248054e+01 8.0414327729276167e+01 8.7349696101379124e+01 0 0 0
1972 1 7.7442860034718758e-02 7.8343151905488384e+01 7.7502690400504477e+01 9.0442892735321550e+01 1 1 0
3826 2 9.4843937664556427e-02 8.0958005416638329e+01 8.0830898686554448e+01 9.5407105682454329e+01 0 0 0
1970 2 -1.0648917156407009e-01 7.7478653517593287e+01 7.7006545506344168e+01 8.9957543658444322e+01 1 1 0
2675 2 -1.3958427412350496e-01 7.7134335867985001e+01 8.2041329514839020e+01 9.0230081427028679e+01 0 0 0
2679 1 5.6979016261134705e-02 7.7098607266782707e+01 7.9925014567733371e+01 9.0889196418363781e+01 0 0 0
1971 1 5.1328564918295939e-02 7.6640536131874825e+01 7.7744342727726362e+01 9.0035706158710795e+01 1 1 0
454 3 -2.2096395784135148e-01 8.0939910693891505e+01 7.7070131455425297e+01 9.3782358923678274e+01 0 0 0
1973 2 -5.9777422712667658e-02 7.7981543151468983e+01 7.6853140330250270e+01 8.8426425885567681e+01 1 1 0
1740 3 -1.4981183850951429e-01 8.2983834712296343e+01 8.1379696931467052e+01 9.0451066795414533e+01 0 0 0
1975 2 -2.1028130240869145e-01 7.6654303677734518e+01 7.7059461410080175e+01 8.7558416389057584e+01 1 1 0
3818 1 1.0450735265154301e-01 7.8401553158317469e+01 8.1271918166153753e+01 9.5851603124468269e+01 0 0 0
2676 1 6.2657472752382620e-02 7.7200872284750432e+01 8.2778025558222922e+01 9.1046788801296074e+01 0 0 0
1967 1 7.2334729766595635e-02 7.7378770403298688e+01 7.6639927167875896e+01 9.2650664465118282e+01 1 1 0
5443 2 -5.8443910911265634e-02 8.8279749520712059e+01 7.7046157204447042e+01 8.6419469326136962e+01 0 1 0
1739 2 1.4692272684607860e-01 8.3444514154076046e+01 8.0474221022655158e+01 8.9847000303235049e+01 0 0 0
1749 1 1.2208413780274094e-01 8.9365281773455351e+01 7.6923728034261998e+01 9.3331968433808527e+01 0 0 0
565 3 -1.6679532088114485e-01 8.3240162221878577e+01 7.9978311274868389e+01 9.4535105915222204e+01 0 0 0
542 1 8.6958137958910345e-02 8.6396130964570375e+01 7.9835525756743692e+01 9.5430505675442845e+01 0 0 0
1707 1 1.0738408227788351e-01 8.3796566283487465e+01 7.8376442022465923e+01 8.9493176032976223e+01 0 0 0