#Input file for lammps
 
1536 atoms
2 atom types
 
0.0 30.5776 xlo xhi
0.0 30.5776 ylo yhi
0.0 32.1891 zlo zhi
 
Masses
 
1 28.06
2 6.941
 
Atoms
 
      1 1 0      9.12093      29.9421      18.5303
      2 1 0      15.9688      12.0059       9.9801
      3 1 0      3.63709      13.7126      13.4672
      4 1 0      21.0996      13.8529      17.8643
      5 1 0       6.1112      21.3586      6.41007
      6 1 0      3.30264      9.89578      26.2869
      7 1 0      27.2726      3.87635      30.3186
      8 1 0      12.7963      4.63528        13.36
      9 1 0      8.79068     0.444765       12.977
     10 1 0      18.1615      28.4177      3.25286
     11 1 0      15.2834      8.59192      9.30944
     12 1 0       11.463      7.24495       3.4687
     13 1 0      4.40046      11.2696      19.2962
     14 1 0      30.5472      28.1014      4.51169
     15 1 0      25.0753      5.71669      22.0339
     16 1 0      13.7273      13.2281      26.0507
     17 1 0      8.89585      20.1921      21.5915
     18 1 0       29.166      22.4043      7.23801
     19 1 0      23.0485      20.6375      16.4931
     20 1 0      18.3974      9.06497      2.72541
     21 1 0      18.9621      23.2121      31.7863
     22 1 0      10.7185      11.8073      5.68288
     23 1 0      4.08266      9.55484      28.2967
     24 1 0      0.88699      6.83537     0.149915
     25 1 0      0.02818      18.1689      23.5727
     26 1 0      23.0762      16.8616      16.5917
     27 1 0      23.0916      12.6992      26.3207
     28 1 0      26.8081      12.4142      13.8939
     29 1 0      4.72066      27.3212      1.50805
     30 1 0      2.43013      15.0736      29.5483
     31 1 0      4.18754      4.81213      12.9026
     32 1 0        26.19      12.5834      1.26038
     33 1 0      18.8245      9.06378      13.3096
     34 1 0      18.7563      28.9942      10.3564
     35 1 0      19.1046      16.9944       6.0072
     36 1 0      12.0603      28.9828      28.1658
     37 1 0      12.8436      18.0029      28.5339
     38 1 0      20.9009     0.737765      7.20392
     39 1 0       22.042      15.5408      11.6057
     40 1 0      18.2362      30.1683      1.72148
     41 1 0      10.4285      22.7257      16.9777
     42 1 0      19.6816      25.3107      19.9029
     43 1 0      13.8413      19.5706      23.1653
     44 1 0      3.52716      23.2075      24.6399
     45 1 0       25.092      27.0859        26.45
     46 1 0      21.0924      10.4778      28.9197
     47 1 0      28.7903       17.925      1.67349
     48 1 0      20.5148      23.2746      9.97199
     49 1 0      15.0323      16.6622      25.9553
     50 1 0      3.90162      28.7288      29.8982
     51 1 0      2.96506      22.5334      20.0989
     52 1 0      12.4581       3.6227      5.84478
     53 1 0      24.1795      26.5683      28.5505
     54 1 0      21.0332      28.5273      20.7168
     55 1 0      19.8894      19.4822      23.0752
     56 1 0      25.7212      26.7004      22.3373
     57 1 0      6.77218      9.34203      23.3896
     58 1 0      9.08684      28.3675      6.83856
     59 1 0      29.5099      25.6935      8.97133
     60 1 0      5.72897      23.7434     0.126675
     61 1 0      13.3885      9.03801      29.8456
     62 1 0      27.0431      22.7034      8.23795
     63 1 0      18.6299      5.21432       23.303
     64 1 0      25.1683      14.3923      6.84361
     65 1 0      11.3552      13.7388      26.1035
     66 1 0      13.7292      13.5983      16.1241
     67 1 0      25.3334      20.7855      14.7968
     68 1 0      7.61961      11.6117      31.7644
     69 1 0      14.2443      10.0202      17.2404
     70 1 0      20.7634      6.36148      11.3054
     71 1 0      13.7857      2.43439      16.6381
     72 1 0      5.05421      21.0811      14.5797
     73 1 0      27.0096        17.63      22.7802
     74 1 0      19.4967      13.6689      21.1098
     75 1 0      27.5292      11.8145      24.9397
     76 1 0      2.78752      18.9422      21.0594
     77 1 0      5.76898      27.1229       30.236
     78 1 0      27.9756      4.66348      24.1144
     79 1 0      11.2381      12.1106      18.3996
     80 1 0      4.22024      12.8726      8.43357
     81 1 0      16.5053      4.89152      16.1928
     82 1 0      14.3611      10.5433      31.4732
     83 1 0      25.0943      11.9547      18.1996
     84 1 0      3.76793      17.0749      5.26558
     85 1 0      22.2639      22.7032      17.1832
     86 1 0      13.6218      12.5408       22.492
     87 1 0      23.2982      1.95873      17.4339
     88 1 0      13.9199      21.4873     0.788445
     89 1 0       25.354      16.8441      16.0563
     90 1 0      13.8575       15.242      29.5171
     91 1 0       24.031      7.86421      5.49643
     92 1 0      7.00077      22.0116      17.2959
     93 1 0      16.8168      24.1242      31.8248
     94 1 0      2.32797      17.8796      24.4277
     95 1 0      2.32672      13.6737      31.5341
     96 1 0      0.15101      15.9618      29.3263
     97 1 0      21.9157       9.4121      8.01825
     98 1 0      2.67576       8.0654      31.2496
     99 1 0      22.7659       24.207      21.7351
    100 1 0      0.45658      21.1275     0.109895
    101 1 0      0.45397      10.7329      21.4388
    102 1 0       11.263      26.8744      9.83199
    103 1 0      17.5991     0.187925      6.56717
    104 1 0      28.6283      23.2781      15.6407
    105 1 0      8.37704      2.03891      9.45791
    106 1 0       3.1338      18.2753      1.49514
    107 1 0      29.4955      3.27916      1.83086
    108 1 0      10.1629      11.9567      20.5218
    109 1 0      11.3151     0.113995      10.2112
    110 1 0      29.5563      23.0337      11.9077
    111 1 0      1.17173      27.1711      15.7648
    112 1 0      5.70602      3.39709      7.47523
    113 1 0      11.6031      6.28418      14.1032
    114 1 0      29.1468      30.4307      17.8067
    115 1 0      11.7203      2.18065      18.0413
    116 1 0      10.8571      15.1989      2.98924
    117 1 0      9.99398      21.9935       1.8037
    118 1 0      19.6491      2.49896      7.49376
    119 1 0      4.12409       29.743      23.5676
    120 1 0      24.6529      19.7624      12.4573
    121 1 0      7.19213      14.6197      6.59729
    122 1 0      25.3793      26.3981      12.9354
    123 1 0      20.5398      26.1715      5.20265
    124 1 0      16.3388      12.0664      2.15955
    125 1 0      25.1421      13.2047      10.4717
    126 1 0      5.10255      23.8194       23.383
    127 1 0      1.81475      16.5104      1.95074
    128 1 0      1.76125      1.77609      32.0087
    129 1 0      9.67858      25.6558      29.6328
    130 1 0      14.8675       20.607      7.53346
    131 1 0      3.70479      6.54511      14.2805
    132 1 0       18.401      26.1029      16.6693
    133 1 0      5.56608        27.65      28.2873
    134 1 0      8.66508      7.15843      26.0088
    135 1 0       13.534      7.54721      10.5684
    136 1 0      4.51851      12.2166        21.97
    137 1 0      11.2781      3.22667      12.4167
    138 1 0      12.1411      7.49106        5.641
    139 1 0      29.6247      1.13769      4.77872
    140 1 0      16.8255      10.5069      3.86639
    141 1 0       10.662      29.5779      13.5944
    142 1 0      18.3323      11.3671       13.733
    143 1 0      29.5975      24.0307      1.66894
    144 1 0      8.24924       11.537      8.34416
    145 1 0      24.0615      5.40296      12.8442
    146 1 0      20.2349       6.6887      31.0878
    147 1 0      14.3994       15.858      15.4229
    148 1 0      15.7227       6.1227      20.9812
    149 1 0      16.4233      16.5626      1.43613
    150 1 0      6.31862      19.8785      17.8398
    151 1 0      25.6953       29.406       18.642
    152 1 0      30.5393     0.217795      16.2157
    153 1 0      7.92096      6.68804      28.9889
    154 1 0      20.4183      8.39269       14.679
    155 1 0      21.8053      12.6065      30.0982
    156 1 0      2.52754      29.9862      2.68282
    157 1 0      7.21231     0.775635      4.16847
    158 1 0      23.0773      22.0332      7.43774
    159 1 0      13.2428      20.4276      15.5424
    160 1 0      22.8402      18.6744      2.84719
    161 1 0      16.7793      23.5214      19.0075
    162 1 0      14.9945      16.8095      6.90737
    163 1 0      3.50143      16.3689      7.28761
    164 1 0      5.12866       17.347      26.8348
    165 1 0      19.4207      29.5752      6.69135
    166 1 0       6.0729     0.746625      28.6779
    167 1 0      15.6933     0.436745      31.4572
    168 1 0      25.3701      23.9872      16.2891
    169 1 0      5.31193      26.1311      22.5182
    170 1 0        8.041      20.7806       9.3478
    171 1 0      26.7909     0.750445      2.63633
    172 1 0      14.1324      27.5012       2.9135
    173 1 0      19.6885      12.1245      10.3287
    174 1 0      16.1241      6.90757      4.37361
    175 1 0      26.3897      22.8934      14.7733
    176 1 0      17.1347      23.1664      21.3038
    177 1 0      14.7246       28.449      16.6959
    178 1 0      19.6154      12.6474       2.9973
    179 1 0      16.8027      15.2008      31.9556
    180 1 0      4.03292      5.38495      18.1579
    181 1 0      8.17133      16.8403      9.43844
    182 1 0      16.8122      25.0129      28.3135
    183 1 0      23.3387      18.8059      23.8839
    184 1 0      25.4864      8.88758      20.2164
    185 1 0      19.8447      14.3867      1.21788
    186 1 0      25.4301      17.7987      24.2859
    187 1 0      26.3464      19.0795      13.3145
    188 1 0      25.2392      29.9417      20.8739
    189 1 0      21.6023      23.5591      7.68238
    190 1 0      18.3059      14.0379      29.4489
    191 1 0      8.04468      25.2322      19.8575
    192 1 0      11.8395      4.66972     0.623485
    193 1 0      16.9004      16.3007      10.4211
    194 1 0       1.7509      23.3387      28.1974
    195 1 0      25.7082      18.7241      6.50619
    196 1 0      6.32818      21.7975      22.9065
    197 1 0      9.19192      7.16892      8.77575
    198 1 0      10.9975      2.01528     0.619435
    199 1 0      3.79439      23.3964      4.27773
    200 1 0      24.4919      5.11264      31.4748
    201 1 0       11.839      18.5182      15.9992
    202 1 0      1.21917      10.2794      9.11763
    203 1 0      27.9592      20.2157      25.8417
    204 1 0      17.9927      25.3494      9.78501
    205 1 0      21.7541      21.2139      20.0676
    206 1 0      8.45616      24.7884      10.7155
    207 1 0      30.1028      19.3226      30.9898
    208 1 0      19.6029      22.6303      29.5144
    209 1 0      16.1382      18.7419      7.50446
    210 1 0       8.2395      15.9925      16.1399
    211 1 0       5.4963      7.51366      24.3335
    212 1 0       26.708      14.9273      26.3783
    213 1 0      8.09399      12.0864       14.694
    214 1 0      7.60755      27.9242      31.5725
    215 1 0      2.58107      28.7736      9.92339
    216 1 0      21.8548      25.3203      9.33375
    217 1 0      10.4236      27.8002      22.3471
    218 1 0      7.00084      1.57685      7.85025
    219 1 0      9.39667      26.8322       10.976
    220 1 0      2.00123      26.6613      23.8306
    221 1 0      26.0433      29.6318       12.244
    222 1 0      18.9234      2.70784      3.88965
    223 1 0      28.1269      26.8528      28.1445
    224 1 0       21.277      1.21039     0.633635
    225 1 0      2.88955      22.6596      16.4197
    226 1 0      18.1014      26.5046      2.25232
    227 1 0      0.49484      12.1858      17.7816
    228 1 0      13.4321     0.606465        4.356
    229 1 0      12.8479      17.4562      26.1545
    230 1 0      17.3073      24.0268      24.7587
    231 1 0      21.4419      9.92482      17.5814
    232 1 0      8.03975      16.8429      18.4313
    233 1 0      2.04025      7.33666      21.3446
    234 1 0      5.18286      18.2189     0.959605
    235 1 0      12.5514      28.8563       9.9663
    236 1 0      18.2022      16.1034      30.1838
    237 1 0      17.6708       14.989      8.75346
    238 1 0      10.3695      18.9006      3.95194
    239 1 0      21.3944      19.5925      1.13627
    240 1 0      12.5683      28.0868      16.4847
    241 1 0      7.46281      6.91291      19.7869
    242 1 0      0.51969      19.9265      19.8004
    243 1 0      26.7048      18.9012      8.62489
    244 1 0      6.82266      26.8743      21.1411
    245 1 0      7.16396      3.23467       18.603
    246 1 0      9.35141       12.666     0.380545
    247 1 0      25.2066      22.4633      6.60872
    248 1 0        14.66      16.8519      17.5555
    249 1 0      9.67654      2.34849      27.9077
    250 1 0      13.3815      13.7632     0.906365
    251 1 0      11.7238     0.183645      7.91976
    252 1 0      1.70071      10.3967       23.149
    253 1 0      22.4048      25.4788      27.6116
    254 1 0      5.09566      30.4684      11.8032
    255 1 0      21.6915      17.3175      20.7435
    256 1 0      11.4049      11.7603       22.614
    257 1 0      18.1149       6.0861      27.8037
    258 1 0      17.5552      13.7174      22.0666
    259 1 0      10.6247      26.7196      7.55314
    260 1 0      27.6342     0.955575      25.4525
    261 1 0      14.0023      24.4127      20.1231
    262 1 0      15.9502      28.5803      4.16578
    263 1 0      10.8899      24.5133      25.3316
    264 1 0      10.9903      8.25694       18.957
    265 1 0      5.36878      23.0237      16.0524
    266 1 0      12.0405      2.45744      7.85874
    267 1 0      17.4787      28.2424      24.0338
    268 1 0      30.0013      1.65742      28.3683
    269 1 0      19.9818      19.3647      25.5466
    270 1 0      5.74227      1.35102      18.1904
    271 1 0      18.1818      4.76316     0.947145
    272 1 0      15.4276      22.0021       4.4471
    273 1 0      13.4415        6.061      17.2815
    274 1 0      27.1684        14.13     0.133115
    275 1 0      10.9833       9.4187       15.701
    276 1 0      9.77646      18.8458      6.75366
    277 1 0      25.3941      24.2335      5.00924
    278 1 0      5.95922      7.66019     0.853805
    279 1 0      21.0048       11.785       23.726
    280 1 0      13.8865       18.845      4.42875
    281 1 0      2.51082     0.310775      22.7626
    282 1 0      19.6114      1.08519      26.9838
    283 1 0       0.1711      1.16404      12.2507
    284 1 0      7.70967      23.8518      4.21476
    285 1 0      28.0974      28.2549      4.26732
    286 1 0        14.84       5.4581        22.82
    287 1 0      23.8705      20.4347      3.97097
    288 1 0      20.5767      19.8803      12.1916
    289 1 0      14.7752      27.4838      29.8259
    290 1 0      9.17567      6.95462      17.9837
    291 1 0      9.18715     0.152685      10.6097
    292 1 0      7.71584      16.1387       29.225
    293 1 0      23.5051      28.8455      17.9895
    294 1 0      28.9923      2.25157      30.4922
    295 1 0      10.7373       11.273      31.6375
    296 1 0      29.5185      17.6742      11.6873
    297 1 0      7.58546      3.78802      11.0414
    298 1 0      14.9109     0.220745      17.0012
    299 1 0      29.7408      20.6248      8.66517
    300 1 0      22.0982       27.405       1.2008
    301 1 0       1.0353      12.6693      20.0955
    302 1 0      6.84333      10.3158      9.90569
    303 1 0      5.01757      23.1979       21.025
    304 1 0      7.55007      28.2157      18.0253
    305 1 0      8.06219      18.8343      8.13444
    306 1 0      2.12049      5.94675      24.9987
    307 1 0      19.8138      22.5172      17.2042
    308 1 0      28.6992      10.9978      4.71814
    309 1 0      4.50894      29.9064      6.11907
    310 1 0      29.3875      8.23629      24.8809
    311 1 0      7.01089      1.56227      11.9493
    312 1 0      24.2408       28.178      21.6601
    313 1 0       7.3031      4.83843      3.18953
    314 1 0      30.2317      26.4256      17.1208
    315 1 0      16.4363      21.9027       15.757
    316 1 0      6.94301      16.4092      1.12895
    317 1 0      4.38494      8.36551      12.9209
    318 1 0      3.80281       27.485      18.6265
    319 1 0      25.3037      17.3779      9.74786
    320 1 0      19.8341      18.6141      18.1396
    321 1 0      17.2429      11.6191      5.71258
    322 1 0      20.4443      24.7515      32.0646
    323 1 0      17.2161      22.1336      11.3509
    324 1 0      8.90391      13.9867      20.4349
    325 1 0      13.3686      16.1472       10.659
    326 1 0      10.2412      10.3366      7.48034
    327 1 0      20.7167      30.2164      31.1971
    328 1 0      22.6096       1.7044      12.2348
    329 1 0      6.82724      4.70728      29.6298
    330 1 0       27.221      14.0782      3.56086
    331 1 0      10.0278      1.98403      2.55363
    332 1 0      12.6002      11.5969     0.494685
    333 1 0      5.12645      22.7119      10.4648
    334 1 0      10.3591      5.15339      9.30177
    335 1 0      22.6727      4.80999     0.781825
    336 1 0      28.8136     0.031875       27.157
    337 1 0      28.0093      24.5151      11.6503
    338 1 0      5.18832      9.72247      1.82652
    339 1 0      24.7718       8.3265      29.1736
    340 1 0      22.0958      25.2992      20.0549
    341 1 0      12.1805      27.6188      4.19339
    342 1 0       7.9078      23.7736      12.9055
    343 1 0      22.5551      18.7493      31.4913
    344 1 0      16.4261       18.421      9.61538
    345 1 0      15.9707      22.2957      6.64309
    346 1 0      12.7879      25.4628     0.184975
    347 1 0      13.9146      9.93333      7.99615
    348 1 0      5.90585     0.412845      22.4327
    349 1 0      6.17853      8.89575      27.9124
    350 1 0      2.32446      18.9626      5.10759
    351 1 0      4.15368      7.61404      10.5839
    352 1 0      10.2084      27.3757      27.9878
    353 1 0      23.0045       23.201      27.7556
    354 1 0      29.3663      9.12275      20.5357
    355 1 0      17.9264      27.9079      18.2082
    356 1 0      2.19873      16.3995      11.5893
    357 1 0      9.17017      3.45461      5.92155
    358 1 0      0.55161      3.38675       7.0891
    359 1 0      24.7117     0.416305      31.9359
    360 1 0      27.3542      24.0419      20.6151
    361 1 0      25.7859      25.9823      9.21118
    362 1 0      6.39908      11.4039      24.0802
    363 1 0      21.9764      22.2522      29.6752
    364 1 0      2.48928      23.5997      30.5106
    365 1 0      8.27785      27.8635      22.6634
    366 1 0      14.4351       12.067      8.44895
    367 1 0      25.2801       20.108      17.2291
    368 1 0       4.1325      22.2236       6.3727
    369 1 0      0.46016      15.6597      4.15013
    370 1 0      8.93105      21.5704      15.8924
    371 1 0      19.9484      5.06036      13.1804
    372 1 0      11.2346      27.8759       24.386
    373 1 0      5.45026      7.81438      19.6068
    374 1 0      22.9659      11.9801      3.29975
    375 1 0      29.9736      7.81478      7.64048
    376 1 0       2.3074      10.5998       5.5926
    377 1 0       25.637      9.19253      4.31118
    378 1 0         19.6      16.9979       19.813
    379 1 0      22.8075       27.535      19.9079
    380 1 0      12.9703      16.7393      8.22691
    381 1 0      1.43843      15.2427      8.01988
    382 1 0      9.96928      14.7379       16.402
    383 1 0      22.8333      8.40086      1.67162
    384 1 0       23.168      18.9177      27.7924
    385 1 0      20.0557      15.4329      14.7708
    386 1 0      23.4989       3.2143        13.78
    387 1 0      16.9205      30.3986      21.0426
    388 1 0      6.52507      28.5143      12.0282
    389 1 0       8.0127      3.07923      31.0909
    390 1 0      3.48173      9.92379      17.4682
    391 1 0      8.43392        18.93      18.0681
    392 1 0      18.7037      21.7285      3.01865
    393 1 0      22.4835      28.6393      11.5411
    394 1 0      9.79017      20.6956      5.45787
    395 1 0      14.5066      27.2136     0.467355
    396 1 0      14.8463      4.38579      17.5569
    397 1 0      10.6274      22.2871      19.3424
    398 1 0      13.8253      13.1531      4.65566
    399 1 0      24.7087      11.9856      27.8818
    400 1 0      1.66186      28.4589      7.76365
    401 1 0      2.06043      12.9502      8.52121
    402 1 0      12.9196      20.9974      13.5097
    403 1 0      11.6883      11.0361      12.4228
    404 1 0      30.0044      18.3439      16.5104
    405 1 0      29.8631       3.5497      5.37575
    406 1 0      18.9367      24.3284      28.0432
    407 1 0      22.4395     0.874135      5.35196
    408 1 0      12.3096       21.457      2.27874
    409 1 0      3.80136      13.0025      15.5859
    410 1 0      11.9111      5.02846       20.582
    411 1 0      3.67844       30.257       13.697
    412 1 0      10.2046     0.846865      16.9117
    413 1 0      4.76194      13.3509      26.8186
    414 1 0      20.1411      10.5145      2.42143
    415 1 0      9.09547       10.116       28.759
    416 1 0       20.184      1.30577      21.1252
    417 1 0      10.1696      14.7444      31.6859
    418 1 0      23.2677      13.9471      21.3993
    419 1 0      16.4749      20.1265      26.0567
    420 1 0      5.87759      17.5799      4.87666
    421 1 0      28.6123      18.7358      27.6267
    422 1 0       27.128      26.1677      20.6431
    423 1 0      17.0954      25.1926      3.89999
    424 1 0      14.3296      2.80551      4.86059
    425 1 0      10.2125      21.8006       9.4679
    426 1 0      27.5854      25.5338      29.9806
    427 1 0      17.8772      13.2975     0.772825
    428 1 0      10.2014      8.98535      2.33861
    429 1 0      30.3712      11.8336      3.20894
    430 1 0      8.79943      17.7322       14.868
    431 1 0      3.49961      13.4005      3.07179
    432 1 0      7.83039      23.3197      31.2389
    433 1 0      26.2062      12.3748      23.0241
    434 1 0      1.25262      18.3181      11.8746
    435 1 0      9.95838     0.371055      27.1414
    436 1 0      12.0381      27.4282      14.1251
    437 1 0      3.11069       13.074       20.178
    438 1 0      26.4495     0.708775      15.5096
    439 1 0      6.40524      19.0343      25.6745
    440 1 0      28.5303      26.8232      12.0427
    441 1 0       11.247      3.12529      29.4375
    442 1 0      19.6453      23.4468      6.27893
    443 1 0      14.9995      1.88013       7.9326
    444 1 0      18.8139      7.30406      7.88947
    445 1 0      3.71175       1.7274      16.9853
    446 1 0      26.8223      20.9736      9.55249
    447 1 0      6.85598      20.4731      13.0174
    448 1 0      27.0493      30.5457      22.0117
    449 1 0      9.00545      8.07447      16.1523
    450 1 0      14.6639      26.8017      26.0801
    451 1 0      18.3643      23.2206      9.60906
    452 1 0      10.9279      30.2196       24.775
    453 1 0      22.8423      11.4851      8.26483
    454 1 0      11.6049      21.8323      5.95066
    455 1 0      23.6321      5.84621      5.69576
    456 1 0      13.5831       23.959      1.50053
    457 1 0      22.1373     0.235155       17.929
    458 1 0      29.5164      20.1094      24.0802
    459 1 0      6.20692      12.4211      18.6045
    460 1 0      11.6545      20.2208      9.67937
    461 1 0        9.315      16.7666      3.68802
    462 1 0      2.99913      12.3007      23.7278
    463 1 0      13.7041     0.987115      18.9731
    464 1 0      6.04367      12.9121      30.5167
    465 1 0      24.8863      7.95319       18.298
    466 1 0      18.6448      16.8124      11.6092
    467 1 0      25.8247      19.8545      25.5848
    468 1 0      0.85209      5.87279      22.8673
    469 1 0      15.7814      27.4454      7.69062
    470 1 0      15.7014       27.757      14.5789
    471 1 0      22.1585      19.8452      29.5607
    472 1 0      2.62825      26.3243      26.0619
    473 1 0      30.3026      27.0106      10.8305
    474 1 0      4.64244      16.0699     0.127195
    475 1 0      19.7883      28.0055      26.7544
    476 1 0      19.8992      15.0711      12.6689
    477 1 0      1.25011      1.36139       8.1897
    478 1 0      3.06666      15.9629       23.345
    479 1 0      30.3712      21.7787      20.9528
    480 1 0      23.5015      28.1099       15.909
    481 1 0      16.8474      12.6195      23.9203
    482 1 0      14.0942      14.0464      20.1125
    483 1 0      15.4302       12.942      6.42103
    484 1 0      13.1087      19.9779      6.36585
    485 1 0      28.8721      22.5577      4.93128
    486 1 0      12.4319      16.8246      14.3489
    487 1 0      2.74627      1.95077      9.59625
    488 1 0      1.35131      9.89818      17.6675
    489 1 0      16.5421      4.64942      24.3315
    490 1 0       23.581      28.2551      29.8324
    491 1 0      27.8799      4.88527      5.78993
    492 1 0      7.40993     0.179035      16.8911
    493 1 0       29.612      2.13234      21.1345
    494 1 0      22.2552      18.8799      13.0493
    495 1 0      28.2191     0.565615      9.32898
    496 1 0      2.62726      19.8454       27.872
    497 1 0      26.3678      15.8765      21.4205
    498 1 0      21.6407      13.1128     0.203135
    499 1 0        9.594       27.353      13.1888
    500 1 0      4.21437      5.49014      10.5562
    501 1 0      14.6309      2.29101      20.8006
    502 1 0       3.5961      26.6586      10.5179
    503 1 0      0.78191      3.75515      21.6207
    504 1 0      12.4604       30.178      30.1649
    505 1 0      25.2876      20.4935      20.9083
    506 1 0      0.72652      5.65421      27.0731
    507 1 0      1.62311      24.4182      4.28013
    508 1 0      29.3604      6.52576      23.3419
    509 1 0      10.9213      5.27743      2.74276
    510 1 0      7.79106      24.1864      28.8459
    511 1 0      1.70746       14.022      23.8768
    512 1 0       19.399      14.9934      19.0676
    513 1 0      27.6458      6.14184      30.0514
    514 1 0       19.378      28.5501      14.0383
    515 1 0      22.9161      13.5501      11.1789
    516 1 0      16.8417      25.6415      14.8715
    517 1 0      0.13143      28.9958      14.6733
    518 1 0      28.5058      7.19067        21.49
    519 1 0       19.123      19.6884       14.872
    520 1 0      24.2846      9.26714      10.7762
    521 1 0      10.9494      25.8542      3.21525
    522 1 0      5.89608      16.0993      19.2881
    523 1 0      4.32074      11.3832      6.48055
    524 1 0      10.1048       8.1283      6.76115
    525 1 0      6.28391      4.84443      9.36576
    526 1 0      16.2695      26.8939      22.3981
    527 1 0      9.25995      24.2113      2.43722
    528 1 0      19.4028      4.59931      31.3168
    529 1 0      18.7224      4.07744      29.0436
    530 1 0      18.6864      6.08021       16.988
    531 1 0      27.3614      10.4414      1.59909
    532 1 0      1.39452       20.786      8.65933
    533 1 0      16.7941      23.1422      3.17476
    534 1 0      6.33648      18.7163      2.93488
    535 1 0       6.7291      8.81475      13.3606
    536 1 0      5.70242       30.233      8.05692
    537 1 0      16.8157      26.4117     0.327615
    538 1 0       0.1791      10.1307      24.7977
    539 1 0      19.2514      7.13626       19.009
    540 1 0       18.461      2.07312      9.30435
    541 1 0      2.48103      23.9761      18.2232
    542 1 0      28.6931      27.6818      14.2554
    543 1 0       5.1332      1.07604      4.56417
    544 1 0      0.16598      28.0166      24.6213
    545 1 0      23.3902      11.9884      19.9743
    546 1 0      15.2548      23.8294      14.9559
    547 1 0      11.0226      6.10954      22.5156
    548 1 0      4.95121      7.28437      31.1999
    549 1 0      29.6154      16.9564      19.7996
    550 1 0      10.0185      15.1323      12.0763
    551 1 0       8.9573      15.2119      7.80466
    552 1 0      27.6045       4.7591      1.75143
    553 1 0      18.2349      27.5569      30.9605
    554 1 0      19.8141      17.0699       28.699
    555 1 0      5.84867      11.7074      4.93515
    556 1 0       8.9433      11.8433      4.40529
    557 1 0      28.4398      11.2341      8.60223
    558 1 0       11.094      23.0554      7.64292
    559 1 0      15.9886      9.40915      26.1248
    560 1 0      3.43767      28.3049      27.3817
    561 1 0      19.4852      18.7433      32.0567
    562 1 0       25.301      3.24341      29.2701
    563 1 0      4.45669      18.9986      10.0623
    564 1 0        3.033     0.861395      20.6372
    565 1 0      0.12544      18.1321      4.74683
    566 1 0      2.90713      13.4541      28.1875
    567 1 0      6.62161      2.33333     0.781045
    568 1 0      27.8514      12.9193      29.2259
    569 1 0      14.7184      30.2095       2.8907
    570 1 0      6.98912      9.18699      21.2252
    571 1 0      22.5326      23.0687      13.4931
    572 1 0      26.7461      30.0946      24.1228
    573 1 0       6.1327      19.0375      6.80194
    574 1 0      13.2279      9.13254      12.6643
    575 1 0      12.9691      12.7844      12.3333
    576 1 0      7.09418       6.8178      8.35567
    577 1 0      4.54053      24.8087      30.8642
    578 1 0      16.5008      7.25077       15.795
    579 1 0      23.5474      26.5904      24.7736
    580 1 0      14.4916      25.9321      6.48074
    581 1 0      10.7686      11.4757      29.1629
    582 1 0      4.19113      11.7689      29.3451
    583 1 0      8.48987      19.6699      28.5854
    584 1 0      10.0662       24.832      16.4142
    585 1 0      27.9933      30.0627      5.76949