# LAMMPS data file written by Ovito Basic 3.0.0-dev791
152 atoms
2 atom types
0.0 20.0 xlo xhi
0.0 20.0 ylo yhi
0.0 20.0 zlo zhi

Atoms  # charge

1 1 0.0 6.557155132 18.884382248 13.315163612
2 1 0.0 7.25702858 1.898162246 12.496101379
3 1 0.0 15.337392807 7.041275501 18.908163071
4 1 0.0 3.074192762 7.364655495 12.231575012
5 1 0.0 7.213018417 14.680356026 2.931621075
6 1 0.0 18.028423309 12.159266472 12.299085617
7 1 0.0 19.148593903 3.98768568 15.392870903
8 1 0.0 8.109835625 10.574813843 11.842242241
9 1 0.0 1.640050888 2.377990723 11.270252228
10 1 0.0 13.976646423 10.509571075 5.528767586
11 1 0.0 14.758512497 8.217832565 2.607107639
12 1 0.0 15.69732666 14.727212906 7.537556171
13 1 0.0 18.069660187 0.52328819 10.289917946
14 1 0.0 6.909818649 16.19291687 18.240571976
15 1 0.0 2.651821136 14.823397636 1.531722426
16 2 0.0 6.079853058 6.396641731 0.354740769
17 2 0.0 1.226104021 1.338951588 18.517982483
18 2 0.0 6.082253456 7.597941399 0.359640002
19 2 0.0 6.079153538 5.256041527 19.977939606
20 2 0.0 18.426891327 16.388145447 19.735868454
21 2 0.0 18.420488358 14.043447495 0.098872177
22 2 0.0 18.42449379 15.18684864 19.730869293
23 2 0.0 13.634159088 0.367050052 14.809083939
24 2 0.0 13.664560318 0.381851047 7.96068573
25 2 0.0 13.630160332 19.223648071 15.176983833
26 2 0.0 1.713117838 3.169766665 19.879940033
27 2 0.0 1.718917847 7.623566628 0.604543269
28 2 0.0 1.720117927 6.655065536 19.8937397
29 2 0.0 1.241803885 0.28055194 17.964080811
30 2 0.0 14.125961304 14.515743256 19.944141388
31 2 0.0 14.723119736 14.66447258 19.391151428
32 2 0.0 14.111361504 15.706243515 0.551142633
33 2 0.0 9.823599815 4.255999565 5.737699509
34 2 0.0 9.817698479 3.883999825 6.879999638
35 2 0.0 9.812398911 3.882299662 8.081198692
36 2 0.0 9.807997704 4.25039959 9.224798203
37 2 0.0 9.805098534 4.952498436 10.199398041
38 2 0.0 9.803998947 5.920999527 10.910297394
39 2 0.0 9.80469799 7.061599731 11.287097931
40 2 0.0 9.807098389 8.262899399 11.29199791
41 2 0.0 9.811098099 9.406297684 10.924097061
42 2 0.0 9.816299438 10.379297256 10.219497681
43 2 0.0 9.821997643 11.086096764 9.248200417
44 2 0.0 9.82779789 11.458097458 8.105898857
45 2 0.0 9.833098412 11.459797859 6.904697895
46 2 0.0 9.837499619 11.091697693 5.761198521
47 2 0.0 9.840298653 10.389596939 4.786499977
48 2 0.0 9.841500282 9.421098709 4.075698376
49 2 0.0 9.840899467 8.280498505 3.698899746
50 2 0.0 9.838498116 7.07919836 3.69389987
51 2 0.0 9.834500313 5.935799599 4.061899662
52 2 0.0 9.829398155 4.962800026 4.766499519
53 2 0.0 9.683199883 6.781198502 16.977897644
54 2 0.0 9.698898315 5.722798347 16.423999786
55 2 0.0 9.713297844 4.65599966 15.872097015
56 2 0.0 9.727898598 3.465499878 15.265097618
57 2 0.0 6.097154617 10.421140671 18.315841675
58 2 0.0 6.102953434 10.793140411 17.173540115
59 2 0.0 6.091454506 9.714342117 19.287139893
60 2 0.0 6.108253479 10.794839859 15.972337723
61 2 0.0 6.086254597 8.741341591 19.991737366
62 2 0.0 6.112654686 10.426740646 14.828839302
63 2 0.0 6.115454674 9.7246418 13.854137421
64 2 0.0 6.116652966 8.756142616 13.143339157
65 2 0.0 6.116054535 7.615541458 12.766537666
66 2 0.0 6.080254555 4.287541389 19.267040253
67 2 0.0 6.11365366 6.414241314 12.761537552
68 2 0.0 6.083154678 3.585441589 18.292438507
69 2 0.0 6.109652996 5.270841599 13.129537582
70 2 0.0 6.087553501 3.217341661 17.148839951
71 2 0.0 6.104554653 4.297842026 13.834137917
72 2 0.0 6.092853546 3.219041824 15.947638512
73 2 0.0 6.098752975 3.591041803 14.805337906
74 2 0.0 18.407989502 19.193746567 5.285170555
75 2 0.0 18.413793564 19.565750122 4.142870426
76 2 0.0 18.402292252 18.486949921 6.25647068
77 2 0.0 18.419090271 19.567447662 2.941670656
78 2 0.0 18.397089005 17.513946533 6.961070061
79 2 0.0 18.423492432 19.19934845 1.798170924
80 2 0.0 18.393093109 16.370546341 7.328970432
81 2 0.0 18.426288605 18.497249603 0.82347095
82 2 0.0 18.39068985 15.169248581 7.324070454
83 2 0.0 18.427490234 17.528745651 0.112670995
84 2 0.0 18.389989853 14.028648376 6.94726944
85 2 0.0 18.391090393 13.060148239 6.236370087
86 2 0.0 18.393989563 12.358047485 5.261770248
87 2 0.0 18.398391724 11.989947319 4.118171215
88 2 0.0 18.415390015 13.070447922 0.803470969
89 2 0.0 18.403688431 11.99164772 2.916970491
90 2 0.0 18.409591675 12.363648415 1.774670839
91 2 0.0 13.635458946 14.843049049 11.966184616
92 2 0.0 13.640760422 14.844747543 10.764984131
93 2 0.0 13.631059647 15.211148262 13.109784126
94 2 0.0 13.646659851 15.216747284 9.622686386
95 2 0.0 13.628159523 15.913248062 14.084383011
96 2 0.0 13.652459145 15.923547745 8.651486397
97 2 0.0 13.627059937 16.881748199 14.795284271
98 2 0.0 13.657560349 16.896549225 7.946885109
99 2 0.0 13.62775898 18.022348404 15.172084808
100 2 0.0 13.661560059 18.03994751 7.578885555
101 2 0.0 13.663959503 19.241249084 7.58388567
102 2 0.0 13.639359474 1.340050817 14.104485512
103 2 0.0 13.663359642 1.350349903 8.671484947
104 2 0.0 13.645058632 2.046848774 13.133183479
105 2 0.0 13.660559654 2.052449703 9.646184921
106 2 0.0 13.650860786 2.418848991 11.990884781
107 2 0.0 13.656159401 2.420552015 10.789684296
108 2 0.0 1.691017866 1.116266966 3.899242878
109 2 0.0 1.696317911 1.11796689 2.698042631
110 2 0.0 1.686617851 1.484366775 5.042841911
111 2 0.0 1.702217937 1.489966869 1.555742741
112 2 0.0 1.683717847 2.186466694 6.01744175
113 2 0.0 1.708017707 2.196766853 0.58454293
114 2 0.0 1.682617784 3.154966831 6.728341579
115 2 0.0 1.6833179 4.295566559 7.105142593
116 2 0.0 1.717117906 4.313166618 19.511940002
117 2 0.0 1.685717821 5.496866703 7.110042572
118 2 0.0 1.719517827 5.514466286 19.516941071
119 2 0.0 1.689717889 6.640265465 6.742142677
120 2 0.0 1.694917798 7.613265514 6.037542343
121 2 0.0 1.70061779 8.320065498 5.066242695
122 2 0.0 1.716117859 8.325665474 1.579242826
123 2 0.0 1.706417918 8.692065239 3.923942804
124 2 0.0 1.711717844 8.693767548 2.722742796
125 2 0.0 1.270803928 18.023248672 16.805183411
126 2 0.0 1.256203771 19.213748932 17.412181854
127 2 0.0 1.852398872 13.479007721 12.186664581
128 2 0.0 1.837798834 14.66950798 12.793664932
129 2 0.0 1.823398829 15.736307144 13.345565796
130 2 0.0 1.807698727 16.794706345 13.899464607
131 2 0.0 14.096961021 16.773044586 1.103043914
132 2 0.0 14.081259727 17.831441879 1.656943798
133 2 0.0 12.498269081 9.296892166 7.88939476
134 2 0.0 12.483668327 10.487390518 8.496395111
135 2 0.0 12.469268799 11.554191589 9.048295975
136 2 0.0 12.453569412 12.61259079 9.602194786
137 2 0.0 6.484666348 15.710884094 9.996511459
138 2 0.0 6.470067501 16.901382446 10.60351181
139 2 0.0 6.455666542 17.968183517 11.155410767
140 2 0.0 6.439966679 19.026586533 11.709310532
141 2 0.0 4.798974514 4.599829197 16.870630264
142 2 0.0 4.784374714 5.790328503 17.477630615
143 2 0.0 4.769974709 6.85712862 18.029533386
144 2 0.0 4.754274368 7.915527344 18.583433151
145 2 0.0 9.584196091 15.552223206 16.438447952
146 2 0.0 9.569598198 16.742721558 17.045448303
147 2 0.0 9.555197716 17.809520721 17.59734726
148 2 0.0 9.539497375 18.867923737 18.151247025
149 2 0.0 14.767819405 11.348772049 17.678352356
150 2 0.0 14.753221512 12.539272308 18.285352707
151 2 0.0 14.73882103 13.606072426 18.837253571
152 2 0.0 0.286561966 16.636825562 10.299286842
