# LAMMPS data file written by OVITO Basic 3.8.4

76 atoms
5 atom types

0.0 6.735 xlo xhi
0.0 6.1759732609 ylo yhi
0.0 22.487 zlo zhi
-4.0491455 0.0 0.0 xy xz yz

Masses

1 28.0855  # Si of tobermorite
2 15.9994  #  O of tobermorite
3 40.078   # Ca of tobermorite
4 15.9994  #  O of water
5 1.00794  #  H of water

Atoms  # full

1 1 1 0.0 3.5420235079 2.3851608734 3.53900406
2 1 1 0.0 3.5420235079 2.3851608734 18.94799594
3 1 1 0.0 0.1745235079 2.3851608734 14.78250406
4 1 1 0.0 0.1745235079 2.3851608734 7.70449594
5 1 1 0.0 3.0706830239 4.6511254628 1.60017492
6 1 1 0.0 3.0706830239 4.6511254628 20.88682508
7 1 1 0.0 -0.2968169761 4.6511254628 12.84367492
8 1 1 0.0 -0.2968169761 4.6511254628 9.64332508
9 1 1 0.0 1.1867556086 5.9888412711 3.54687451
10 1 1 0.0 1.1867556086 5.9888412711 18.94012549
11 1 1 0.0 -2.1807443914 5.9888412711 14.79037451
12 1 1 0.0 -2.1807443914 5.9888412711 7.69662549
13 1 2 0.0 3.1442222915 3.1244248727 2.1182754
14 1 2 0.0 3.1442222915 3.1244248727 20.3687246
15 1 2 0.0 -0.2232777085 3.1244248727 13.3617754
16 1 2 0.0 -0.2232777085 3.1244248727 9.1252246
17 1 2 0.0 4.391117101 1.0993232404 2.9840249
18 1 2 0.0 4.391117101 1.0993232404 19.5029751
19 1 2 0.0 1.023617101 1.0993232404 14.2275249
20 1 2 0.0 1.023617101 1.0993232404 8.2594751
21 1 2 0.0 4.459988781 3.3158800438 4.4569234
22 1 2 0.0 4.459988781 3.3158800438 18.0300766
23 1 2 0.0 1.092488781 3.3158800438 15.7004234
24 1 2 0.0 1.092488781 3.3158800438 6.7865766
25 1 2 0.0 2.2552117333 1.8917006098 4.3669754
26 1 2 0.0 2.2552117333 1.8917006098 18.1200246
27 1 2 0.0 -1.1122882667 1.8917006098 15.6104754
28 1 2 0.0 -1.1122882667 1.8917006098 6.8765246
29 1 2 0.0 3.000427457 4.6072760527 0.0
30 1 2 0.0 -0.367072543 4.6072760527 11.2435
31 1 2 0.0 -2.3497069315 5.515144122 2.113778
32 1 2 0.0 -2.3497069315 5.515144122 20.373222
33 1 2 0.0 1.0177930685 5.515144122 13.357278
34 1 2 0.0 1.0177930685 5.515144122 9.129722
35 1 2 0.0 0.061120853 2.6803723952 2.1115293
36 1 2 0.0 0.061120853 2.6803723952 20.3754707
37 1 2 0.0 3.428620853 2.6803723952 13.3550293
38 1 2 0.0 3.428620853 2.6803723952 9.1319707
39 1 2 0.0 1.70368487 5.3113370044 2.1385137
40 1 2 0.0 1.70368487 5.3113370044 20.3484863
41 1 2 0.0 -1.66381513 5.3113370044 13.3820137
42 1 2 0.0 -1.66381513 5.3113370044 9.1049863
43 1 2 0.0 0.2385479995 5.0087143146 4.3872137
44 1 2 0.0 0.2385479995 5.0087143146 18.0997863
45 1 2 0.0 -3.1289520005 5.0087143146 15.6307137
46 1 2 0.0 -3.1289520005 5.0087143146 6.8562863
47 1 2 0.0 6.4615892215 0.2834771727 4.4636695
48 1 2 0.0 6.4615892215 0.2834771727 18.0233305
49 1 2 0.0 3.0940892215 0.2834771727 15.7071695
50 1 2 0.0 3.0940892215 0.2834771727 6.7798305
51 1 3 0.0 0.0329783276 2.6729612273 4.62265259
52 1 3 0.0 0.0329783276 2.6729612273 17.86434741
53 1 3 0.0 3.4004783276 2.6729612273 15.86615259
54 1 3 0.0 3.4004783276 2.6729612273 6.62084741
55 1 3 0.0 1.3140250326 5.6991881252 6.59948476
56 1 3 0.0 1.3140250326 5.6991881252 15.88751524
57 1 3 0.0 -2.0534749674 5.6991881252 17.84298476
58 1 3 0.0 -2.0534749674 5.6991881252 4.64401524
59 1 4 0.0 1.9890821355 1.3525381441 0.0
60 1 4 0.0 5.3565821355 1.3525381441 11.2435
61 1 4 0.0 4.9604175165 1.4637056628 0.0
62 1 4 0.0 1.5929175165 1.4637056628 11.2435
63 1 4 0.0 -0.3971464 4.9407786087 0.0
64 1 4 0.0 2.9703536 4.9407786087 11.2435
65 1 5 0.0 -0.4084431645 1.3525381441 11.2435
66 1 5 0.0 2.9590568355 1.3525381441 0.0
67 1 5 0.0 4.4944594597 1.1091430379 11.2435
68 1 5 0.0 1.1269594597 1.1091430379 0.0
69 1 5 0.0 1.2695861863 0.5528113666 11.2435
70 1 5 0.0 4.6370861863 0.5528113666 0.0
71 1 5 0.0 2.5628922165 1.4637056628 11.2435
72 1 5 0.0 -0.8046077835 1.4637056628 0.0
73 1 5 0.0 -2.7946717 4.9407786087 11.2435
74 1 5 0.0 0.5728283 4.9407786087 0.0
75 1 5 0.0 2.6470279572 5.7720028499 11.2435
76 1 5 0.0 -0.7204720428 5.7720028499 0.0
