# LAMMPS data file written by Ovito Basic 3.0.0-dev791
10 atoms
3 atom types
0.0 5.1499657631 xlo xhi
0.0 5.1499657631 ylo yhi
0.0 5.1499657631 zlo zhi

Atoms  # charge

1 1 0.0 0.0 0.0 0.0
2 1 0.0 2.574982643 0.0 2.574982643
3 1 0.0 2.574982643 2.574982643 0.0
4 2 0.0 0.0 2.574982643 2.574982643
5 3 0.0 1.287491322 3.862473965 3.862473965
6 3 0.0 1.287491322 1.287491322 3.862473965
7 3 0.0 1.287491322 3.862473965 1.287491322
8 3 0.0 3.862473965 3.862473965 1.287491322
9 3 0.0 3.862473965 1.287491322 1.287491322
10 3 0.0 3.862473965 1.287491322 3.862473965
