# LAMMPS data file written by Ovito Basic 3.0.0-dev791
218 atoms
3 atom types
0.0 15.5 xlo xhi
0.0 15.5 ylo yhi
0.0 15.5 zlo zhi

Atoms  # charge

1 1 0.0 1.281999946 0.0 0.0
2 1 0.0 0.0 0.0 3.875
3 1 0.0 1.281999946 0.0 3.875
4 1 0.0 0.0 0.0 7.75
5 1 0.0 1.281999946 0.0 7.75
6 1 0.0 0.0 0.0 11.625
7 1 0.0 1.281999946 0.0 11.625
8 1 0.0 0.0 3.099999905 0.0
9 1 0.0 1.281999946 3.099999905 0.0
10 1 0.0 0.0 3.099999905 3.875
11 1 0.0 1.281999946 3.099999905 3.875
12 1 0.0 0.0 3.099999905 7.75
13 1 0.0 1.281999946 3.099999905 7.75
14 1 0.0 0.0 3.099999905 11.625
15 1 0.0 1.281999946 3.099999905 11.625
16 1 0.0 0.0 6.199999809 0.0
17 1 0.0 1.281999946 6.199999809 0.0
18 1 0.0 0.0 6.199999809 3.875
19 1 0.0 1.281999946 6.199999809 3.875
20 1 0.0 0.0 6.199999809 7.75
21 1 0.0 1.281999946 6.199999809 7.75
22 1 0.0 0.0 6.199999809 11.625
23 1 0.0 1.281999946 6.199999809 11.625
24 1 0.0 0.0 9.300000191 0.0
25 1 0.0 1.281999946 9.300000191 0.0
26 1 0.0 0.0 9.300000191 3.875
27 1 0.0 1.281999946 9.300000191 3.875
28 1 0.0 0.0 9.300000191 7.75
29 1 0.0 1.281999946 9.300000191 7.75
30 1 0.0 0.0 9.300000191 11.625
31 1 0.0 1.281999946 9.300000191 11.625
32 1 0.0 0.0 12.399999619 0.0
33 1 0.0 1.281999946 12.399999619 0.0
34 1 0.0 0.0 12.399999619 3.875
35 1 0.0 1.281999946 12.399999619 3.875
36 1 0.0 0.0 12.399999619 7.75
37 1 0.0 1.281999946 12.399999619 7.75
38 1 0.0 0.0 12.399999619 11.625
39 1 0.0 1.281999946 12.399999619 11.625
40 1 0.0 3.099999905 0.0 0.0
41 1 0.0 4.381999969 0.0 0.0
42 1 0.0 3.099999905 0.0 3.875
43 1 0.0 4.381999969 0.0 3.875
44 1 0.0 3.099999905 0.0 7.75
45 1 0.0 4.381999969 0.0 7.75
46 1 0.0 3.099999905 0.0 11.625
47 1 0.0 4.381999969 0.0 11.625
48 1 0.0 3.099999905 3.099999905 0.0
49 1 0.0 4.381999969 3.099999905 0.0
50 1 0.0 3.099999905 3.099999905 3.875
51 1 0.0 4.381999969 3.099999905 3.875
52 1 0.0 3.099999905 3.099999905 7.75
53 1 0.0 4.381999969 3.099999905 7.75
54 1 0.0 3.099999905 3.099999905 11.625
55 1 0.0 4.381999969 3.099999905 11.625
56 1 0.0 3.099999905 6.199999809 0.0
57 1 0.0 4.381999969 6.199999809 0.0
58 1 0.0 3.099999905 6.199999809 3.875
59 1 0.0 4.381999969 6.199999809 3.875
60 1 0.0 3.099999905 6.199999809 7.75
61 1 0.0 4.381999969 6.199999809 7.75
62 1 0.0 3.099999905 6.199999809 11.625
63 1 0.0 4.381999969 6.199999809 11.625
64 1 0.0 3.099999905 9.300000191 0.0
65 1 0.0 4.381999969 9.300000191 0.0
66 1 0.0 3.099999905 9.300000191 3.875
67 1 0.0 4.381999969 9.300000191 3.875
68 1 0.0 3.099999905 9.300000191 7.75
69 1 0.0 4.381999969 9.300000191 7.75
70 1 0.0 3.099999905 9.300000191 11.625
71 1 0.0 4.381999969 9.300000191 11.625
72 1 0.0 3.099999905 12.399999619 0.0
73 1 0.0 4.381999969 12.399999619 0.0
74 1 0.0 3.099999905 12.399999619 3.875
75 1 0.0 4.381999969 12.399999619 3.875
76 1 0.0 3.099999905 12.399999619 7.75
77 1 0.0 4.381999969 12.399999619 7.75
78 1 0.0 3.099999905 12.399999619 11.625
79 1 0.0 4.381999969 12.399999619 11.625
80 1 0.0 6.199999809 0.0 0.0
81 1 0.0 7.481999874 0.0 0.0
82 1 0.0 6.199999809 0.0 3.875
83 1 0.0 7.481999874 0.0 3.875
84 1 0.0 6.199999809 0.0 7.75
85 1 0.0 7.481999874 0.0 7.75
86 1 0.0 6.199999809 0.0 11.625
87 1 0.0 7.481999874 0.0 11.625
88 1 0.0 6.199999809 3.099999905 0.0
89 1 0.0 7.481999874 3.099999905 0.0
90 1 0.0 6.199999809 3.099999905 3.875
91 1 0.0 7.481999874 3.099999905 3.875
92 1 0.0 6.199999809 3.099999905 7.75
93 1 0.0 7.481999874 3.099999905 7.75
94 1 0.0 6.199999809 3.099999905 11.625
95 1 0.0 7.481999874 3.099999905 11.625
96 1 0.0 6.199999809 6.199999809 0.0
97 1 0.0 7.481999874 6.199999809 0.0
98 1 0.0 6.199999809 6.199999809 3.875
99 1 0.0 7.481999874 6.199999809 3.875
100 1 0.0 6.199999809 6.199999809 7.75
101 1 0.0 7.481999874 6.199999809 7.75
102 1 0.0 6.199999809 6.199999809 11.625
103 1 0.0 7.481999874 6.199999809 11.625
104 1 0.0 6.199999809 9.300000191 0.0
105 1 0.0 7.481999874 9.300000191 0.0
106 1 0.0 6.199999809 9.300000191 3.875
107 1 0.0 7.481999874 9.300000191 3.875
108 1 0.0 6.199999809 9.300000191 7.75
109 1 0.0 7.481999874 9.300000191 7.75
110 1 0.0 6.199999809 9.300000191 11.625
111 1 0.0 7.481999874 9.300000191 11.625
112 1 0.0 6.199999809 12.399999619 0.0
113 1 0.0 7.481999874 12.399999619 0.0
114 1 0.0 6.199999809 12.399999619 3.875
115 1 0.0 7.481999874 12.399999619 3.875
116 1 0.0 6.199999809 12.399999619 7.75
117 1 0.0 7.481999874 12.399999619 7.75
118 1 0.0 6.199999809 12.399999619 11.625
119 1 0.0 7.481999874 12.399999619 11.625
120 1 0.0 9.300000191 0.0 0.0
121 1 0.0 10.581999779 0.0 0.0
122 1 0.0 9.300000191 0.0 3.875
123 1 0.0 10.581999779 0.0 3.875
124 1 0.0 9.300000191 0.0 7.75
125 1 0.0 10.581999779 0.0 7.75
126 1 0.0 9.300000191 0.0 11.625
127 1 0.0 10.581999779 0.0 11.625
128 1 0.0 9.300000191 3.099999905 0.0
129 1 0.0 10.581999779 3.099999905 0.0
130 1 0.0 9.300000191 3.099999905 3.875
131 1 0.0 10.581999779 3.099999905 3.875
132 1 0.0 9.300000191 3.099999905 7.75
133 1 0.0 10.581999779 3.099999905 7.75
134 1 0.0 9.300000191 3.099999905 11.625
135 1 0.0 10.581999779 3.099999905 11.625
136 1 0.0 9.300000191 6.199999809 0.0
137 1 0.0 10.581999779 6.199999809 0.0
138 1 0.0 9.300000191 6.199999809 3.875
139 1 0.0 10.581999779 6.199999809 3.875
140 1 0.0 9.300000191 6.199999809 7.75
141 1 0.0 10.581999779 6.199999809 7.75
142 1 0.0 9.300000191 6.199999809 11.625
143 1 0.0 10.581999779 6.199999809 11.625
144 1 0.0 9.300000191 9.300000191 0.0
145 1 0.0 10.581999779 9.300000191 0.0
146 1 0.0 9.300000191 9.300000191 3.875
147 1 0.0 10.581999779 9.300000191 3.875
148 1 0.0 9.300000191 9.300000191 7.75
149 1 0.0 10.581999779 9.300000191 7.75
150 1 0.0 9.300000191 9.300000191 11.625
151 1 0.0 10.581999779 9.300000191 11.625
152 1 0.0 9.300000191 12.399999619 0.0
153 1 0.0 10.581999779 12.399999619 0.0
154 1 0.0 9.300000191 12.399999619 3.875
155 1 0.0 10.581999779 12.399999619 3.875
156 1 0.0 9.300000191 12.399999619 7.75
157 1 0.0 10.581999779 12.399999619 7.75
158 1 0.0 9.300000191 12.399999619 11.625
159 1 0.0 10.581999779 12.399999619 11.625
160 1 0.0 12.399999619 0.0 0.0
161 1 0.0 13.68200016 0.0 0.0
162 1 0.0 12.399999619 0.0 3.875
163 1 0.0 13.68200016 0.0 3.875
164 1 0.0 12.399999619 0.0 7.75
165 1 0.0 13.68200016 0.0 7.75
166 1 0.0 12.399999619 0.0 11.625
167 1 0.0 13.68200016 0.0 11.625
168 1 0.0 12.399999619 3.099999905 0.0
169 1 0.0 13.68200016 3.099999905 0.0
170 1 0.0 12.399999619 3.099999905 3.875
171 1 0.0 13.68200016 3.099999905 3.875
172 1 0.0 12.399999619 3.099999905 7.75
173 1 0.0 13.68200016 3.099999905 7.75
174 1 0.0 12.399999619 3.099999905 11.625
175 1 0.0 13.68200016 3.099999905 11.625
176 1 0.0 12.399999619 6.199999809 0.0
177 1 0.0 13.68200016 6.199999809 0.0
178 1 0.0 12.399999619 6.199999809 3.875
179 1 0.0 13.68200016 6.199999809 3.875
180 1 0.0 12.399999619 6.199999809 7.75
181 1 0.0 13.68200016 6.199999809 7.75
182 1 0.0 12.399999619 6.199999809 11.625
183 1 0.0 13.68200016 6.199999809 11.625
184 1 0.0 12.399999619 9.300000191 0.0
185 1 0.0 13.68200016 9.300000191 0.0
186 1 0.0 12.399999619 9.300000191 3.875
187 1 0.0 13.68200016 9.300000191 3.875
188 1 0.0 12.399999619 9.300000191 7.75
189 1 0.0 13.68200016 9.300000191 7.75
190 1 0.0 12.399999619 9.300000191 11.625
191 1 0.0 13.68200016 9.300000191 11.625
192 1 0.0 12.399999619 12.399999619 0.0
193 1 0.0 13.68200016 12.399999619 0.0
194 1 0.0 12.399999619 12.399999619 3.875
195 1 0.0 13.68200016 12.399999619 3.875
196 1 0.0 12.399999619 12.399999619 7.75
197 1 0.0 13.68200016 12.399999619 7.75
198 1 0.0 12.399999619 12.399999619 11.625
199 1 0.0 13.68200016 12.399999619 11.625
200 1 0.0 0.0 0.0 0.0
201 2 0.0 5.5565829331 5.7101947917 2.6237288097
202 2 0.0 2.849124937 3.0743107057 2.3228128849
203 2 0.0 3.5096431272 4.2936105315 2.4750980151
204 2 0.0 3.5795489883 1.9018426073 2.1403675745
205 2 0.0 4.9751604209 1.9446517744 2.1082716087
206 2 0.0 4.9140745557 4.358078497 2.4476474738
207 2 0.0 5.6586456513 3.1640835146 2.2605483994
208 2 0.0 7.164568764 3.1632636306 2.2216626698
209 3 0.0 1.7672024216 3.0383563041 2.3455656129
210 3 0.0 5.2188379063 6.3925681617 1.8165720186
211 3 0.0 5.2548115572 6.1383686833 3.6023968014
212 3 0.0 6.6626459253 5.679071986 2.5967668242
213 3 0.0 7.5205971509 3.803364662 1.3887413375
214 3 0.0 7.5732815708 2.1425838068 2.0642906703
215 3 0.0 7.5665279606 3.5473098966 3.1822519294
216 3 0.0 5.5209039053 1.0204514421 1.9649117324
217 3 0.0 3.0643526558 0.9576078748 2.0226401736
218 3 0.0 2.9245176753 5.1942677453 2.6160313393
