#Input file for lammps
 
2808 atoms
4 atom types
 
0.0 30.5669 xlo xhi
0.0 30.5669 ylo yhi
0.0 51.1419 zlo zhi
 
Masses
 
1 28.06
2 1.008
3 12
4 14
 
Atoms
 
      1 1 0      28.3754      18.5706      1.99987
      2 1 0      29.7218      16.9384      2.02861
      3 1 0       29.219      20.8135      2.36806
      4 1 0      28.6251      14.9436      2.73135
      5 1 0      7.86543      19.0827      2.73874
      6 1 0       1.0076      21.1908      2.75218
      7 1 0      10.4881       21.939      2.76754
      8 1 0      8.33212      25.3648      2.83114
      9 1 0      13.7509      24.3907      2.84856
     10 1 0       12.226      9.44839      2.97074
     11 1 0      17.5553     0.564815       2.9781
     12 1 0      19.6415     0.911375      3.04036
     13 1 0      1.96019      19.3285      3.06753
     14 1 0       6.3274       20.502      3.12907
     15 1 0       12.472      26.5058      3.15496
     16 1 0      13.5277      28.3301      3.17898
     17 1 0      17.1792      8.70449      3.20208
     18 1 0      9.87378      26.7251      3.21563
     19 1 0      14.3191      6.01044      3.22323
     20 1 0      30.2546       24.393      3.25116
     21 1 0       12.393      18.8087        3.304
     22 1 0      14.0031       11.147      3.32999
     23 1 0      23.0474      4.54852      3.34633
     24 1 0      22.0465      27.9301      3.39315
     25 1 0      23.3151      8.67416      3.39671
     26 1 0      12.2187      30.3689       3.3969
     27 1 0      24.4903      18.7666      3.41899
     28 1 0      7.75753      14.9641      3.45494
     29 1 0      10.1158      19.9525      3.48782
     30 1 0      19.4813      19.0199      3.49893
     31 1 0       16.594       2.7441      3.51101
     32 1 0      3.59874      23.9846      3.52779
     33 1 0      28.8272      3.00246      3.52962
     34 1 0      20.5493      17.2169      3.53036
     35 1 0      8.78167      8.03636      3.53505
     36 1 0      13.9384      15.0807      3.56573
     37 1 0      10.4222      4.38748      3.57858
     38 1 0      4.76839      27.3703      3.58865
     39 1 0      26.3006      6.63802      3.58946
     40 1 0       29.573      4.95509       3.5992
     41 1 0      24.4571      20.8478      3.60041
     42 1 0       26.524      10.6765      3.60709
     43 1 0      12.6052      22.4571      3.62623
     44 1 0     0.634315      17.4578      3.63346
     45 1 0      2.83312      25.9594      3.67877
     46 1 0      26.7977      17.9675      3.68418
     47 1 0      10.2648      9.97063        3.686
     48 1 0      1.64783      15.5127      3.70153
     49 1 0      15.6433      24.5551      3.72612
     50 1 0      8.24102     0.954085      3.74991
     51 1 0     0.049395      28.4565      3.79259
     52 1 0      10.0095      14.6905      3.81078
     53 1 0     0.090005      11.4152      3.81673
     54 1 0       21.274       11.911      3.81962
     55 1 0      26.3437      2.65314      3.84524
     56 1 0       24.869      14.3274       3.8813
     57 1 0      4.31389      19.2753      3.89097
     58 1 0      17.9777      4.53311      3.89452
     59 1 0      22.2769      6.83369       3.9119
     60 1 0      26.9293      15.4794       3.9236
     61 1 0      8.94322      23.3721      3.92756
     62 1 0      16.2496      6.56689      3.94511
     63 1 0      10.7804      12.7422      3.97878
     64 1 0      19.0888      8.63325      4.03526
     65 1 0      12.6282      7.61684      4.04486
     66 1 0      17.6469       13.847      4.06309
     67 1 0      25.5081      29.0181      4.07383
     68 1 0      16.0009      20.6758      4.07456
     69 1 0      30.4538      13.9252      4.09044
     70 1 0      1.65745      23.2036      4.09317
     71 1 0     0.466705      26.3395      4.14351
     72 1 0      20.0369      26.9404      4.14987
     73 1 0      25.4077      8.53632      4.15337
     74 1 0      25.0066      4.61681      4.18713
     75 1 0      7.40283      17.2535      4.21195
     76 1 0      10.4702      6.41345      4.23384
     77 1 0      20.9108      29.8475      4.23452
     78 1 0       8.4603      3.02027      4.24291
     79 1 0      13.1618       12.864       4.2958
     80 1 0      25.0516     0.505805      4.30354
     81 1 0      6.53153      26.1096      4.33336
     82 1 0      28.5718       21.236      4.34929
     83 1 0      26.1872      24.2719      4.35471
     84 1 0      20.5711      21.0342      4.35473
     85 1 0      1.54652       1.2956      4.36053
     86 1 0      4.13364      10.9417      4.37186
     87 1 0      6.33559      4.01044      4.42251
     88 1 0      13.6855       20.486      4.43415
     89 1 0      12.6925      17.0542      4.47938
     90 1 0      28.7196      23.5932      4.48803
     91 1 0      15.9209      10.3152      4.49664
     92 1 0      4.65172      12.9707      4.50155
     93 1 0      22.9617         10.8      4.51889
     94 1 0      19.6248      2.81536      4.52949
     95 1 0      10.0173      30.0651      4.52963
     96 1 0      25.0958       11.994       4.5781
     97 1 0      22.7792      17.5615      4.58394
     98 1 0      5.04758       17.417      4.63934
     99 1 0      6.97041      22.2742      4.64806
    100 1 0      18.9784      22.9251      4.67948
    101 1 0      4.31337      29.0988        4.707
    102 1 0      28.6161      10.4781      4.73942
    103 1 0      28.0673      6.31159      4.77808
    104 1 0      15.7817      15.1967      4.79387
    105 1 0      17.4472      18.8886      4.79774
    106 1 0      16.5244      22.6144      4.79871
    107 1 0      23.6244       27.741      4.83303
    108 1 0      15.3218      28.2281      4.83535
    109 1 0      22.5597      21.6521       4.8396
    110 1 0      6.89419       13.593      4.84068
    111 1 0      22.7124     0.882545      4.84309
    112 1 0      19.6039      15.2504      4.84511
    113 1 0      13.0957      1.05488      4.84959
    114 1 0      1.88197      29.8305      4.85339
    115 1 0      21.3523      14.0032      4.86306
    116 1 0      17.1555      29.6444      4.87695
    117 1 0      21.7304      3.20583      4.88431
    118 1 0      12.2508       3.3921      4.93679
    119 1 0      26.2215      21.8354      4.94515
    120 1 0      6.13976     0.265175      4.96845
    121 1 0      15.0465      2.62289      5.01778
    122 1 0      2.90491      4.92743      5.01809
    123 1 0      7.28416       8.0357      5.03418
    124 1 0      5.46647      24.0615      5.03667
    125 1 0      1.77822      11.1111      5.06928
    126 1 0      19.5388      10.7996      5.08336
    127 1 0      20.1884      25.0387      5.09415
    128 1 0      17.4945      11.9549      5.10299
    129 1 0      11.2809      26.0502      5.12056
    130 1 0      24.0754      25.3114      5.12357
    131 1 0     0.834355      5.35341      5.12455
    132 1 0       13.917      4.73179      5.16286
    133 1 0      23.4461      15.2845      5.17218
    134 1 0      3.04961      16.1518      5.19323
    135 1 0      30.0478      2.06955        5.197
    136 1 0      1.41783      21.0009      5.24343
    137 1 0      12.3246      23.8093      5.26569
    138 1 0      9.55095      27.8583      5.29807
    139 1 0      29.0632      8.23072      5.38971
    140 1 0      15.4464      26.1985      5.43602
    141 1 0      10.6744       16.272       5.4577
    142 1 0      22.4078      24.0741       5.4657
    143 1 0      19.0884      28.6492       5.4954
    144 1 0      6.32536      5.83169      5.50725
    145 1 0      27.1341      28.0189      5.55931
    146 1 0      27.5485      17.5623      5.61456
    147 1 0      3.07717      2.56707      5.62676
    148 1 0      10.2403      24.0122      5.64879
    149 1 0      29.0913      28.8766      5.65857
    150 1 0      5.21148      2.40905      5.74639
    151 1 0       30.151      17.9111      5.75389
    152 1 0      3.00344      19.6684      5.78237
    153 1 0      16.1714       17.049      5.79024
    154 1 0      9.65372      19.9129      5.79514
    155 1 0      27.1336      25.5532      5.80685
    156 1 0      5.60318      9.74235      5.87296
    157 1 0      19.4615      7.05265      5.93067
    158 1 0      21.7042      6.64712      5.98813
    159 1 0     0.454395      7.58634      5.99195
    160 1 0      2.18169      25.3908      6.00833
    161 1 0      9.02168      17.8377      6.01987
    162 1 0      17.8277      5.57568      6.05135
    163 1 0       26.654      1.70122      6.05286
    164 1 0      7.56419      27.4996      6.05973
    165 1 0      29.9635      20.2151      6.09788
    166 1 0      3.42973      14.1839      6.10334
    167 1 0      29.6393       13.847      6.12685
    168 1 0      27.6379      15.0699      6.18102
    169 1 0      9.98697      12.3104      6.18295
    170 1 0      10.1111      10.0756      6.18816
    171 1 0      15.7763      6.95531      6.24895
    172 1 0      13.9839      17.7528      6.28777
    173 1 0      13.2228      8.18061       6.2973
    174 1 0      9.61416      3.53428      6.30642
    175 1 0      28.8463     0.634865       6.3312
    176 1 0       19.363       21.692      6.33469
    177 1 0      15.2518       9.3102      6.34781
    178 1 0      7.72539      21.3481      6.43708
    179 1 0      6.55213      17.6457      6.44025
    180 1 0      1.38851      13.1131      6.45099
    181 1 0      1.84312      17.7224      6.45676
    182 1 0      1.86374      9.13194      6.45787
    183 1 0      10.0941       5.7516      6.47757
    184 1 0      30.5092       26.118      6.48982
    185 1 0      25.1054      8.54065      6.51041
    186 1 0      10.5618     0.248565      6.52247
    187 1 0       1.7853      23.0485      6.55591
    188 1 0      24.7356      4.77637      6.58638
    189 1 0      21.0906      29.8718      6.62875
    190 1 0      13.3953      12.7772      6.64719
    191 1 0      18.3849      19.5454      6.65285
    192 1 0      28.2664      11.8274      6.65921
    193 1 0      29.0624      24.5331      6.66964
    194 1 0      13.5537      19.8139      6.66995
    195 1 0      7.87807      13.0193      6.68194
    196 1 0      6.77682      29.7881      6.69418
    197 1 0      22.4584      1.86423      6.69822
    198 1 0      22.4306      18.4347      6.69925
    199 1 0      13.0755      26.2567      6.70298
    200 1 0      18.8835      2.00575      6.70817
    201 1 0      4.15161       6.1986      6.71256
    202 1 0     0.116325       3.6419      6.74359
    203 1 0      11.4098      2.41688       6.7546
    204 1 0      17.3023     0.351645      6.77072
    205 1 0      24.5384     0.919975      6.78615
    206 1 0      19.1088      26.6222      6.79444
    207 1 0      22.3573      4.49348      6.81131
    208 1 0      22.4783      10.3335      6.82257
    209 1 0         25.8      12.1286      6.84535
    210 1 0       25.672      21.0964      6.86648
    211 1 0      3.54725      28.5773      6.91617
    212 1 0      8.25779      9.22687      6.92734
    213 1 0       23.198      20.6761      6.94637
    214 1 0      16.0494      2.07931      6.96087
    215 1 0      27.3901      5.58779      6.96605
    216 1 0      14.0813      5.91941      6.98789
    217 1 0      14.8259      14.5776      7.00755
    218 1 0      13.2773      30.5151       7.0423
    219 1 0      22.9764      28.5461      7.07336
    220 1 0       4.0392      8.37217      7.08261
    221 1 0      20.0626      10.3563      7.09825
    222 1 0      8.22862      6.74033      7.10532
    223 1 0      19.4469      16.0968      7.12845
    224 1 0      14.3391      28.3258      7.13148
    225 1 0      22.3344       13.679      7.13216
    226 1 0       15.839      22.8312      7.14661
    227 1 0      10.8499      27.2617      7.16427
    228 1 0      29.4978      16.1708      7.19334
    229 1 0      1.26421      29.4594      7.20191
    230 1 0      13.7448      23.8192      7.20568
    231 1 0      26.1538      18.7676      7.22321
    232 1 0      22.8863      8.20649       7.2672
    233 1 0      11.4639      20.5492       7.2767
    234 1 0      17.0967      26.1284      7.27895
    235 1 0      4.76291      24.4067      7.28983
    236 1 0      6.18185      19.7607      7.29355
    237 1 0        28.45      9.02922      7.33737
    238 1 0      21.0922      24.7764      7.35417
    239 1 0      11.2838      15.4347      7.43548
    240 1 0      26.4436      3.29785      7.46214
    241 1 0      17.3047      12.2518      7.46694
    242 1 0      11.8505      9.19716      7.48869
    243 1 0      20.1476      18.1283      7.50622
    244 1 0      11.6358       22.668      7.52161
    245 1 0      24.1108      15.2002      7.53988
    246 1 0      6.61604      11.1643      7.54725
    247 1 0      25.2967      6.64356       7.5659
    248 1 0      11.4089      13.1657      7.58002
    249 1 0      30.2912      27.9793      7.64173
    250 1 0      11.9328      6.70285      7.64891
    251 1 0      23.8146      25.1485       7.6754
    252 1 0      17.2593      16.1467      7.69017
    253 1 0     0.541905      5.91395      7.69452
    254 1 0      13.8811      10.7519      7.70338
    255 1 0      1.77663      2.55966      7.70693
    256 1 0      26.0784      14.2778      7.72734
    257 1 0      4.14149         20.4      7.72952
    258 1 0      3.39868      26.5901      7.73254
    259 1 0      18.0638      3.92957      7.73355
    260 1 0      26.2801      10.2257      7.73651
    261 1 0      13.3865      16.2654      7.76346
    262 1 0      26.5456      28.3012      7.77607
    263 1 0       20.442     0.937785      7.78671
    264 1 0      24.0714      17.6453      7.81468
    265 1 0      19.1155      8.29586      7.84314
    266 1 0      11.4244      29.3807      7.85567
    267 1 0      1.53146       11.149      7.85813
    268 1 0      8.56485     0.360195      7.87981
    269 1 0      6.15702      5.27536      7.92567
    270 1 0      23.6624      11.7617      7.93119
    271 1 0      3.49527      22.7009      7.94003
    272 1 0     0.030715      23.2631      7.94302
    273 1 0       6.0564      3.13917      7.95125
    274 1 0      9.77462      23.8317      7.98485
    275 1 0      28.8034      4.40709      8.00793
    276 1 0      4.44297      14.4476      8.03016
    277 1 0      2.35122      16.0667      8.06865
    278 1 0     0.603925      14.8435      8.07338
    279 1 0      24.7539      29.6399      8.11093
    280 1 0      20.4973      22.8323      8.11584
    281 1 0      16.9267      8.22533      8.11594
    282 1 0      29.9203      20.9922      8.12393
    283 1 0      6.35762      15.9975      8.14194
    284 1 0      8.34567      2.49993      8.16084
    285 1 0      15.0295      20.8028      8.19643
    286 1 0      7.30994      26.4962      8.21303
    287 1 0      19.5622       28.885      8.21664
    288 1 0      20.6395      14.4162      8.22903
    289 1 0      4.97098         29.6      8.25854
    290 1 0     0.121405      9.29415      8.26953
    291 1 0      26.0221      26.0759      8.28023
    292 1 0      16.1265      10.4802      8.28224
    293 1 0      16.7497      19.5526      8.29974
    294 1 0      8.00469        22.67      8.31694
    295 1 0       14.267      1.37278      8.35064
    296 1 0      9.30997      18.2096      8.35994
    297 1 0      16.3906       13.993      8.38644
    298 1 0      29.6957       11.064      8.42314
    299 1 0       7.9855      14.6399      8.42653
    300 1 0      22.5283      26.8228      8.43943
    301 1 0      27.5197       24.496      8.44504
    302 1 0      19.4055      12.2901      8.48423
    303 1 0      16.1854      27.7534      8.48733
    304 1 0      2.45534      18.7931      8.49653
    305 1 0      9.66729       26.206      8.52343
    306 1 0      16.8933      24.1277      8.56014
    307 1 0      17.4929      29.5339      8.58474
    308 1 0      2.67132      5.78352      8.61594
    309 1 0      27.8159      7.20509      8.62034
    310 1 0     0.906315     0.467145      8.67544
    311 1 0      6.49831      24.5227      8.68284
    312 1 0      26.4708      22.3998      8.68614
    313 1 0       22.446      21.6638      8.70623
    314 1 0      29.1595     0.736285      8.75464
    315 1 0      20.4456      26.6371      8.80714
    316 1 0       4.9104      12.1982      8.86383
    317 1 0      28.4757      29.0128      8.87794
    318 1 0      13.3194      24.8552      8.88593
    319 1 0      9.65723      16.0632      8.88913
    320 1 0      16.2607      3.47133      8.92994
    321 1 0      12.4055      2.68662      8.96073
    322 1 0      1.32035      26.6023      8.99903
    323 1 0      8.93814      8.39029      9.00363
    324 1 0      24.2091      23.2632      9.06634
    325 1 0      15.0052      5.21324      9.08454
    326 1 0      21.4219      4.33458      9.09624
    327 1 0      7.25999      19.1767      9.13853
    328 1 0      21.8846      2.21726      9.14554
    329 1 0      27.1688      18.6371      9.15324
    330 1 0      24.0473      1.48201      9.15913
    331 1 0      5.41739       27.712      9.21763
    332 1 0      28.8402      17.1597      9.25023
    333 1 0      10.9219      19.4655      9.25214
    334 1 0        13.74      27.2063      9.26263
    335 1 0      28.0468      20.7117      9.27623
    336 1 0       16.274      17.4922      9.37163
    337 1 0      4.00286      8.92324      9.39394
    338 1 0      3.02082      10.9846      9.42953
    339 1 0      2.60309      3.59252      9.43754
    340 1 0      19.2896      4.71678      9.44364
    341 1 0      20.1629      7.06658      9.48373
    342 1 0     0.903535       19.919      9.48823
    343 1 0      7.77013      10.1643      9.50253
    344 1 0      7.81724      6.20897      9.53744
    345 1 0       28.083      2.72566      9.54163
    346 1 0      29.6453      6.25115      9.54424
    347 1 0      22.6087      7.66786      9.56544
    348 1 0       10.934      8.32947      9.58063
    349 1 0      18.7926      9.97289      9.65634
    350 1 0     0.619025      24.4609      9.66573
    351 1 0      25.5762      2.84471      9.70954
    352 1 0      14.0526      16.9088      9.72063
    353 1 0      18.8997      23.4252      9.72714
    354 1 0      12.4069      10.4541      9.72843
    355 1 0      10.6919      30.0576      9.74914
    356 1 0      11.2738      24.4183      9.76813
    357 1 0      4.66221      2.58841      9.77214
    358 1 0      20.1128      18.7808      9.77243
    359 1 0      11.2306      12.3132      9.82753
    360 1 0      24.7085      6.74496      9.82934
    361 1 0       23.372      15.9825      9.85514
    362 1 0      4.40904      15.6198      9.86974
    363 1 0      4.51539      19.2858      9.91513
    364 1 0      2.65043      23.2854      9.93013
    365 1 0      26.0452      10.4711      9.93473
    366 1 0      11.6782      6.21305      9.93664
    367 1 0      14.8156        11.07      9.93773
    368 1 0      8.61821      29.6886      9.97194
    369 1 0      4.24559     0.295165      9.98694
    370 1 0      26.6707      14.2074      9.98743
    371 1 0      6.09682      17.5354      10.0557
    372 1 0      7.94611      21.3006      10.0561
    373 1 0      18.0032      15.7928       10.097
    374 1 0       30.287      14.1494      10.1015
    375 1 0      9.27906      3.05592      10.1094
    376 1 0      23.7468      18.3526      10.1267
    377 1 0      18.1647      19.7319      10.1517
    378 1 0      13.0453      4.46586      10.1618
    379 1 0      3.12963      17.2703      10.1634
    380 1 0      20.2265     0.341705      10.1671
    381 1 0      16.1951      7.13176      10.1893
    382 1 0      23.9153      11.0825      10.2013
    383 1 0      8.12968      27.4971      10.2199
    384 1 0      15.3212      24.8867      10.2271
    385 1 0     0.425995      7.98132      10.2782
    386 1 0      21.4184      15.1356      10.3015
    387 1 0      23.5481      27.7119      10.3136
    388 1 0      2.65885      7.26525      10.3164
    389 1 0      14.8389     0.518905      10.3272
    390 1 0      25.9129      27.0539      10.3469
    391 1 0      29.5783      27.4597      10.3653
    392 1 0      11.1256      1.72947      10.4034
    393 1 0      22.0521      20.0285      10.4137
    394 1 0      7.91496       13.362      10.4357
    395 1 0      15.3568        13.29       10.447
    396 1 0      3.45669      26.7737      10.4506
    397 1 0      24.2145      30.0356      10.4704
    398 1 0       12.115       28.356      10.4742
    399 1 0      28.3506      25.3483      10.4807
    400 1 0      20.2758       28.453      10.4874
    401 1 0      26.5638       8.3209      10.5054
    402 1 0      9.54588      5.18602      10.5249
    403 1 0      1.88221      30.4251      10.5356
    404 1 0      10.4969      26.6013       10.536
    405 1 0      19.5305      25.3342      10.5361
    406 1 0      29.5233      12.0212      10.5443
    407 1 0      12.9291      18.7523      10.5485
    408 1 0      14.2559      20.4324      10.5715
    409 1 0      28.5156      15.4072      10.6006
    410 1 0      16.5737        9.638      10.6072
    411 1 0      22.4468      5.46753      10.6262
    412 1 0      5.92251      9.17459      10.6309
    413 1 0      16.9932      30.2803      10.7042
    414 1 0      15.7166      27.0087      10.7288
    415 1 0      27.3732      12.1476       10.774
    416 1 0      30.3116      18.2315      10.7773
    417 1 0      9.26075      11.6929      10.7808
    418 1 0      5.80647       12.489      10.8172
    419 1 0      29.4279      4.33716      10.8229
    420 1 0      9.92216      20.7877      10.8519
    421 1 0      17.7008      13.8416      10.8687
    422 1 0      2.00076      21.4381      10.9147
    423 1 0      16.4756      2.22157      10.9398
    424 1 0        19.45      12.2062      10.9502
    425 1 0      22.4946      9.28856      10.9705
    426 1 0      24.7403      4.65578      10.9727
    427 1 0       17.909      6.13385      10.9736
    428 1 0      19.9074      16.6794      10.9779
    429 1 0      25.6636      18.6586      10.9877
    430 1 0      1.35545      28.1363      11.0093
    431 1 0      28.2312     0.358275       11.017
    432 1 0      13.8889      14.9615      11.0431
    433 1 0      6.04751      24.4732      11.0534
    434 1 0      27.5459      28.6241      11.0738
    435 1 0       26.955      21.9224      11.1018
    436 1 0      10.3106      15.6264      11.1322
    437 1 0      24.9282      14.6914      11.1645
    438 1 0      22.2712      1.00883      11.2112
    439 1 0      20.1111      9.39056      11.2603
    440 1 0       6.6345      7.06466      11.2608
    441 1 0      18.3111      21.8025      11.3147
    442 1 0      24.3253      24.0971      11.3171
    443 1 0      1.12502       3.4791      11.3234
    444 1 0      13.0737     0.067685      11.3301
    445 1 0      11.9828      13.9974      11.3318
    446 1 0       5.4867      27.8955      11.3371
    447 1 0        11.16      22.9895      11.3623
    448 1 0      3.91771      24.6412      11.3653
    449 1 0      22.0001      29.1901      11.3864
    450 1 0      17.2965      18.2052      11.4203
    451 1 0      18.7327      1.18622      11.4361
    452 1 0      26.5306      1.57044      11.5016
    453 1 0      9.81015      9.56409      11.5068
    454 1 0      21.4816      13.3913       11.563
    455 1 0      29.0106      20.5174      11.5651
    456 1 0      1.54015      16.9945       11.572
    457 1 0      18.8674      3.54501      11.5876
    458 1 0      4.69283       14.172      11.6161
    459 1 0      1.33464      14.8437      11.6167
    460 1 0      17.5855      26.0361      11.6392
    461 1 0      5.60646      3.11702      11.6646
    462 1 0      13.5351      9.88784      11.6953
    463 1 0      7.92291      2.47426      11.7312
    464 1 0      7.84375     0.134715      11.7346
    465 1 0      12.6615      7.51678      11.7718
    466 1 0      2.35868      11.2672      11.7829
    467 1 0      26.3408      25.5587      11.8172
    468 1 0       30.155      24.3166      11.8188
    469 1 0      25.8263      30.0604      11.8313
    470 1 0      23.6332      12.7903      11.8661
    471 1 0      7.22448      17.2325      11.9062
    472 1 0      5.53179      30.1799      11.9272
    473 1 0      25.4567       7.2024      11.9289
    474 1 0      13.2252      22.0617      11.9529
    475 1 0      23.3733      25.8906      11.9589
    476 1 0      7.07597      22.4988      11.9779
    477 1 0      3.79677      20.3191       11.978
    478 1 0      14.8885       7.8361      11.9956
    479 1 0      8.34352      15.0727      12.0474
    480 1 0      30.5206      21.9481      12.0502
    481 1 0        24.45      16.8881      12.0703
    482 1 0      18.8921      27.7195      12.0891
    483 1 0      16.7973      28.6884      12.0901
    484 1 0      27.7272      23.6236      12.1038
    485 1 0      16.0926      20.1038      12.1491
    486 1 0       7.0548      26.3446      12.1548
    487 1 0      30.0475      8.74169      12.1745
    488 1 0      19.3556      7.28411      12.1835
    489 1 0      14.9128      23.7578      12.1903
    490 1 0      1.15905      1.34421       12.198
    491 1 0     0.257835      11.0684      12.2558
    492 1 0      26.0894       20.341      12.2731
    493 1 0      5.73391      10.5357      12.2947
    494 1 0      2.81427       13.385      12.3677
    495 1 0      21.0254      25.4186      12.3696
    496 1 0       13.392      3.87235      12.3814
    497 1 0      9.47749      26.3697      12.4033
    498 1 0       21.956      20.8067      12.4122
    499 1 0      3.54921      18.2759       12.495
    500 1 0      27.7658      8.27634      12.5017
    501 1 0      3.37907      6.42507      12.5019
    502 1 0      5.46919      5.36541      12.5079
    503 1 0      7.96659      8.85919       12.511
    504 1 0      3.13206      27.1771      12.5282
    505 1 0       12.112      1.98029      12.5406
    506 1 0      21.2107      5.96333      12.5421
    507 1 0      9.10467      19.2118      12.5589
    508 1 0      10.3834      17.2146      12.6002
    509 1 0      12.6894      28.5489      12.6017
    510 1 0      17.0558      10.3929      12.6159
    511 1 0      16.1312      12.3966      12.6518
    512 1 0      12.4863      17.7822      12.6713
    513 1 0        16.77      22.3047      12.7294
    514 1 0      15.4052      3.01212      12.7474
    515 1 0      16.9009      4.64682      12.7648
    516 1 0      28.4485      27.9935      12.8302
    517 1 0      14.5324      27.4146      12.8522
    518 1 0      11.4146      9.20705       12.869
    519 1 0      23.6437      8.38026      12.8776
    520 1 0      9.49129      5.37751      12.8907
    521 1 0     0.272445      27.8409      12.9188
    522 1 0      28.2839      16.0643      12.9274
    523 1 0      5.99995      15.2034      12.9358
    524 1 0       29.194      18.3433      12.9587
    525 1 0      29.5492     0.911295      12.9618
    526 1 0      23.3935      22.8112       12.968
    527 1 0       21.418      1.77686       13.004
    528 1 0      14.1367      16.1486      13.0334
    529 1 0      25.3801      4.65872      13.0357
    530 1 0      18.9543      17.7079      13.0628
    531 1 0      5.66439      20.9979      13.0847
    532 1 0      27.1544      11.9643       13.105
    533 1 0      1.86736      4.83315      13.1246
    534 1 0      19.8003      21.7831      13.1265
    535 1 0      19.3026      10.3537      13.1411
    536 1 0      28.8814      4.75075      13.1871
    537 1 0      8.97479      11.8606      13.1926
    538 1 0      10.3514      24.3073      13.1926
    539 1 0      4.88971      1.57132       13.201
    540 1 0      20.5336       3.9828      13.2622
    541 1 0      13.6317      6.00971      13.2907
    542 1 0      19.7173      15.7998      13.2938
    543 1 0     0.638795      25.5439      13.3186
    544 1 0      3.76179      10.2118      13.3188
    545 1 0      17.9558      13.8193      13.3436
    546 1 0      26.1317      15.6059      13.3445
    547 1 0      7.75927      6.49472      13.3454
    548 1 0       24.199      20.9282      13.3493
    549 1 0      1.92345      21.4542       13.365
    550 1 0      16.0351      17.4163      13.3699
    551 1 0      5.38462       17.381      13.4142
    552 1 0      10.4131       28.282       13.455
    553 1 0       9.0732      30.2699      13.4626
    554 1 0      17.5046       24.421      13.4696
    555 1 0      3.05398      25.0026      13.5086
    556 1 0      12.1174       13.279      13.5109
    557 1 0      6.85862      19.3045      13.5686
    558 1 0      4.33824      28.8572      13.5868
    559 1 0      27.2439      6.16167      13.6227
    560 1 0      12.9434      11.1288      13.6394
    561 1 0      8.73165      22.9297      13.6407
    562 1 0      26.3678      2.64181      13.6435
    563 1 0      25.4665      13.2582      13.6464
    564 1 0      20.2638      27.1359      13.6604
    565 1 0      21.7435      28.7517      13.6778
    566 1 0      15.6085      6.26159      13.6945
    567 1 0      11.2928      6.78629      13.7073
    568 1 0      1.12756       15.025      13.7091
    569 1 0      9.97188      20.8016      13.7101
    570 1 0      21.2511      23.4975      13.7138
    571 1 0      19.7203       12.521      13.7214
    572 1 0      8.99534      3.17241       13.736
    573 1 0      18.9814     0.568255      13.7365
    574 1 0      21.7554      13.3825      13.7495
    575 1 0      27.0017      26.7687       13.848
    576 1 0       12.861      30.5626      13.8521
    577 1 0      2.75045       1.4067      13.8551
    578 1 0     0.518085      7.94076      13.9102
    579 1 0        16.19      8.59073      13.9128
    580 1 0      23.1518      17.2097      13.9202
    581 1 0      10.5277        1.594      13.9207
    582 1 0      12.2638      21.0355      13.9221
    583 1 0      14.1894      25.3536      13.9386
    584 1 0      20.3065      19.5141      13.9534
    585 1 0      1.87104      17.3651      13.9674