#Input file for lammps
 
3550 atoms
3 atom types
 
0.0 164 xlo xhi
0.0 164 ylo yhi
0.0 164 zlo zhi
 
Masses
 
1 1.008
2 12
3 14
 
Atoms
 
      1 1 0       68.407      81.3696      60.6467
      2 2 0      68.6021      81.9175       61.573
      3 1 0      67.6649      81.8767      62.1374
      4 2 0       69.761        81.19      62.3958
      5 1 0      69.5165      80.1441      62.5735
      6 1 0      70.6866      81.1572      61.8327
      7 2 0      69.9634      81.9197      63.7267
      8 1 0        69.04      81.9108      64.3107
      9 2 0      71.0988      81.1771      64.5076
     10 1 0      70.8462      80.1328      64.6768
     11 1 0      72.0184      81.1505      63.9312
     12 2 0      71.3124      81.9288      65.8624
     13 1 0        70.39      81.9234      66.4507
     14 2 0      72.4466      81.1755      66.6301
     15 1 0      72.1897       80.131      66.7949
     16 1 0      73.3641      81.1478      66.0498
     17 2 0      72.6602      81.9276      67.9847
     18 1 0      71.7365      81.9228      68.5721
     19 2 0      73.7953      81.1715       68.748
     20 1 0      73.5361      80.1273      68.9137
     21 1 0      74.7119      81.1433      68.1677
     22 2 0      74.0063      81.9223      70.1017
     23 1 0       73.081      81.9208      70.6835
     24 2 0      75.1391       81.163      70.8729
     25 1 0      74.8874      80.1227      71.0414
     26 1 0       76.058      81.1372      70.2964
     27 2 0      74.4245      83.3058      69.8837
     28 3 0      74.7584      84.4094      69.7101
     29 2 0      73.0552      83.3145      67.7274
     30 3 0      73.3686      84.4141      67.5232
     31 2 0      71.7108      83.3151      65.6116
     32 3 0      72.0272      84.4158      65.4127
     33 2 0      70.3719      83.3156      63.4975
     34 3 0      70.6934      84.4147      63.3171
     35 2 0      68.9991      83.3402      61.2762
     36 3 0      69.3033      84.4311      61.0487
     37 2 0       75.339      81.9384      72.2189
     38 1 0      74.4204       81.936      72.8122
     39 2 0      76.4775      81.1892      72.9846
     40 1 0      76.2212      80.1429      73.1486
     41 1 0      77.3941       81.159      72.4047
     42 2 0      76.6857      81.9371      74.3397
     43 1 0      75.7634      81.9277      74.9263
     44 2 0      77.8217      81.1791      75.1026
     45 1 0      77.5653      80.1342      75.2661
     46 1 0      78.7385      81.1521      74.5212
     47 2 0      78.0346      81.9315      76.4568
     48 1 0      77.1112      81.9256      77.0435
     49 2 0      79.1691      81.1757      77.2215
     50 1 0      78.9108      80.1314      77.3849
     51 1 0      80.0856      81.1485      76.6396
     52 2 0      79.3807      81.9295      78.5756
     53 1 0       78.457      81.9241      79.1618
     54 2 0      80.5166      81.1725      79.3386
     55 1 0      80.2565      80.1281       79.503
     56 1 0      81.4326      81.1444      78.7569
     57 2 0      80.7272      81.9235      80.6914
     58 1 0      79.8008      81.9222      81.2732
     59 2 0        81.86      81.1636      81.4626
     60 1 0      81.6078      80.1244      81.6308
     61 1 0      82.7783      81.1386      80.8857
     62 2 0       81.145      83.3071      80.4728
     63 3 0      81.4784      84.4107      80.2988
     64 2 0      79.7761      83.3159      78.3177
     65 3 0      80.0895      84.4154      78.1132
     66 2 0      78.4316      83.3177      76.2024
     67 3 0      78.7467      84.4182      76.0004
     68 2 0      77.0948      83.3239      74.1035
     69 3 0      77.4191      84.4232      73.9166
     70 2 0      75.7036      83.3156      71.8846
     71 3 0       75.989      84.4122      71.6108
     72 2 0      82.0591      81.9397      82.8079
     73 1 0      81.1407      81.9372      83.4018
     74 2 0      83.1978      81.1907      83.5743
     75 1 0      82.9416      80.1441      83.7381
     76 1 0      84.1145      81.1602      82.9943
     77 2 0      83.4062      81.9384       84.929
     78 1 0      82.4836       81.929      85.5158
     79 2 0      84.5424      81.1804      85.6928
     80 1 0      84.2856      80.1353      85.8555
     81 1 0      85.4588      81.1534      85.1106
     82 2 0      84.7548      81.9326      87.0464
     83 1 0      83.8318      81.9268       87.633
     84 2 0      85.8893       81.177      87.8106
     85 1 0      85.6312      80.1325      87.9745
     86 1 0       86.806      81.1497      87.2292
     87 2 0      86.1009       81.931       89.165
     88 1 0      85.1776      81.9254      89.7513
     89 2 0      87.2372      81.1737      89.9284
     90 1 0      86.9769      80.1295      90.0926
     91 1 0      88.1529      81.1457      89.3465
     92 2 0      87.4477      81.9245      91.2806
     93 1 0       86.521      81.9235       91.863
     94 2 0      88.5803      81.1646      92.0519
     95 1 0      88.3282      80.1256      92.2202
     96 1 0      89.4987      81.1398      91.4752
     97 2 0      87.8653      83.3085      91.0621
     98 3 0      88.1987      84.4122      90.8882
     99 2 0      86.4961      83.3172      88.9069
    100 3 0      86.8096      84.4167      88.7022
    101 2 0      85.1519      83.3191       86.792
    102 3 0       85.467      84.4195      86.5899
    103 2 0      83.8155      83.3251      84.6935
    104 3 0        84.14      84.4245       84.507
    105 2 0      82.4244      83.3169      82.4745
    106 3 0      82.7099      84.4134       82.201
    107 2 0      88.7799      81.9408      93.3972
    108 1 0      87.8607      81.9385      93.9916
    109 2 0      89.9181      81.1915      94.1634
    110 1 0       89.662      80.1454      94.3275
    111 1 0      90.8348      81.1613      93.5837
    112 2 0      90.1271      81.9392      95.5182
    113 1 0      89.2035      81.9302      96.1055
    114 2 0      91.2625      81.1814      96.2816
    115 1 0       91.006      80.1367      96.4448
    116 1 0      92.1792      81.1546      95.6999
    117 2 0      91.4752      81.9341      97.6358
    118 1 0       90.552       81.928      98.2222
    119 2 0      92.6101      81.1781      98.4008
    120 1 0      92.3514      80.1337      98.5637
    121 1 0      93.5263      81.1508      97.8183
    122 2 0      92.8217      81.9317      99.7544
    123 1 0      91.8976      81.9265      100.341
    124 2 0      93.9573      81.1748      100.517
    125 1 0      93.6972      80.1305      100.682
    126 1 0      94.8733      81.1468      99.9357
    127 2 0      94.1677      81.9257      101.871
    128 1 0       93.242      81.9244      102.452
    129 2 0         95.3      81.1669      102.641
    130 1 0      95.0486      80.1262       102.81
    131 1 0      96.2193      81.1408      102.065
    132 2 0      94.5856      83.3095      101.652
    133 3 0      94.9195      84.4131      101.478
    134 2 0       93.217      83.3184      99.4966
    135 3 0      93.5304      84.4179      99.2921
    136 2 0      91.8725      83.3201      97.3816
    137 3 0      92.1879      84.4206      97.1798
    138 2 0      90.5356      83.3263      95.2823
    139 3 0      90.8596      84.4257      95.0953
    140 2 0      89.1446       83.318      93.0635
    141 3 0      89.4305      84.4147      92.7906
    142 1 0      95.4386      81.6672      103.599
    143 1 0       31.695      111.609      46.8186
    144 2 0      31.1598      112.501      46.4798
    145 1 0      31.0412      113.125      47.3715
    146 2 0      32.0354      113.274      45.3912
    147 1 0      33.0262      113.504      45.7789
    148 1 0      32.2248      112.655       44.522
    149 2 0      31.3113      114.562      44.9898
    150 1 0      31.1628      115.204      45.8618
    151 2 0      32.1993      115.296      43.9297
    152 1 0      33.1875      115.518      44.3258
    153 1 0       32.382      114.663      43.0663
    154 2 0      31.4546      116.606      43.5124
    155 1 0      31.3027      117.252      44.3824
    156 2 0      32.3533      117.327      42.4558
    157 1 0      33.3412      117.545      42.8565
    158 1 0      32.5369      116.691      41.5951
    159 2 0      31.6082      118.637      42.0384
    160 1 0      31.4555      119.282      42.9098
    161 2 0      32.5099      119.353      40.9818
    162 1 0      33.4971      119.573      41.3846
    163 1 0      32.6938      118.717      40.1219
    164 2 0      31.7657      120.663      40.5672
    165 1 0      31.6097      121.302        41.44
    166 2 0      32.6701      121.387      39.5129
    167 1 0      33.6545      121.609      39.9074
    168 1 0      32.8519      120.755      38.6501
    169 2 0      30.4692      120.369      39.9597
    170 3 0       29.435      120.135      39.4748
    171 2 0      30.3057      118.305      41.4559
    172 3 0      29.2731      118.042       40.994
    173 2 0       30.153      116.281      42.9261
    174 3 0      29.1197      116.022      42.4606
    175 2 0      30.0013      114.257      44.3908
    176 3 0      28.9698      114.017      43.9193
    177 2 0      29.8233      112.128      45.8926
    178 3 0      28.7984      111.843      45.4424
    179 2 0         31.9      122.689       39.106
    180 1 0      31.7456      123.339      39.9716
    181 2 0      32.7954      123.407      38.0448
    182 1 0      33.7853      123.625      38.4452
    183 1 0      32.9813      122.772      37.1852
    184 2 0      32.0536      124.719      37.6332
    185 1 0      31.9058      125.363       38.504
    186 2 0      32.9574      125.435      36.5761
    187 1 0      33.9458      125.652      36.9764
    188 1 0      33.1402      124.797      35.7159
    189 2 0      32.2119      126.745      36.1593
    190 1 0      32.0604      127.389      37.0307
    191 2 0      33.1132      127.462      35.1031
    192 1 0      34.1007      127.679      35.5053
    193 1 0      33.2962      126.825      34.2434
    194 2 0      32.3662      128.772      34.6875
    195 1 0      32.2141      129.416      35.5591
    196 2 0      33.2689      129.488      33.6302
    197 1 0      34.2561      129.706      34.0341
    198 1 0      33.4527      128.851      32.7711
    199 2 0      32.5244      130.797       33.216
    200 1 0      32.3681      131.436      34.0899
    201 2 0      33.4294      131.521      32.1618
    202 1 0      34.4127      131.743      32.5568
    203 1 0      33.6104      130.889      31.2995
    204 2 0      31.2278      130.502       32.609
    205 3 0      30.1935      130.268      32.1245
    206 2 0      31.0642       128.44      34.1047
    207 3 0      30.0317      128.176      33.6428
    208 2 0      30.9104      126.416      35.5748
    209 3 0      29.8771      126.154      35.1108
    210 2 0      30.7529      124.407      37.0355
    211 3 0      29.7218       124.16      36.5616
    212 2 0      30.6045      122.283      38.5602
    213 3 0      29.5724      121.952      38.1309
    214 2 0      32.6586      132.822      31.7556
    215 1 0      32.5042      133.473       32.621
    216 2 0      33.5537      133.541      30.6941
    217 1 0      34.5439      133.759      31.0945
    218 1 0        33.74      132.906      29.8345
    219 2 0      32.8122      134.852      30.2825
    220 1 0      32.6643      135.496      31.1535
    221 2 0       33.716      135.569      29.2251
    222 1 0      34.7045      135.785      29.6258
    223 1 0      33.8987      134.931      28.3654
    224 2 0      32.9706      136.878      28.8089
    225 1 0      32.8191      137.522      29.6798
    226 2 0      33.8717      137.596      27.7528
    227 1 0      34.8594      137.813      28.1546
    228 1 0      34.0548      136.959      26.8927
    229 2 0      33.1244      138.906       27.337
    230 1 0      32.9727      139.549      28.2082
    231 2 0      34.0275      139.622      26.2794
    232 1 0      35.0146       139.84      26.6834
    233 1 0      34.2113      138.985      25.4205
    234 2 0      33.2833       140.93      25.8654
    235 1 0      33.1266       141.57      26.7395
    236 2 0      34.1882      141.655      24.8112
    237 1 0      35.1713      141.876      25.2061
    238 1 0       34.369      141.022      23.9489
    239 2 0      31.9862      140.636      25.2584
    240 3 0      30.9518      140.401       24.774
    241 2 0      31.8227      138.573      26.7545
    242 3 0      30.7903       138.31      26.2924
    243 2 0      31.6688      136.549      28.2242
    244 3 0      30.6356      136.288      27.7602
    245 2 0      31.5115      134.541      29.6845
    246 3 0      30.4804      134.295      29.2104
    247 2 0      31.3631      132.417      31.2091
    248 3 0      30.3311      132.087      30.7798
    249 2 0      33.4173      142.956      24.4046
    250 1 0      33.2628      143.607      25.2707
    251 2 0      34.3128      143.675      23.3437
    252 1 0      35.3024      143.892      23.7439
    253 1 0      34.4988      143.039       22.484
    254 2 0      33.5713      144.986      22.9315
    255 1 0      33.4228       145.63      23.8034
    256 2 0      34.4747      145.702      21.8748
    257 1 0      35.4629      145.919      22.2752
    258 1 0      34.6574      145.065      21.0147
    259 2 0       33.729      147.012      21.4582
    260 1 0      33.5776      147.656      22.3293
    261 2 0      34.6305       147.73      20.4016
    262 1 0      35.6181      147.947      20.8041
    263 1 0      34.8135      147.092      19.5422
    264 2 0      33.8836      149.039       19.986
    265 1 0      33.7313      149.683       20.858
    266 2 0      34.7863      149.755      18.9291
    267 1 0      35.7734      149.974      19.3328
    268 1 0      34.9699      149.118      18.0698
    269 2 0      34.0419      151.065      18.5151
    270 1 0      33.8856      151.703      19.3883
    271 2 0      34.9456      151.788      17.4611
    272 1 0      35.9305       152.01      17.8555
    273 1 0      35.1279      151.156      16.5981
    274 2 0       32.745       150.77      17.9079
    275 3 0      31.7108      150.536      17.4229
    276 2 0      32.5814      148.707      19.4033
    277 3 0      31.5489      148.444      18.9413
    278 2 0      32.4276      146.683      20.8734
    279 3 0      31.3944      146.422      20.4091
    280 2 0      32.2702      144.674      22.3342
    281 3 0       31.239      144.428      21.8605
    282 2 0      32.1218       142.55      23.8587
    283 3 0      31.0896       142.22       23.429
    284 1 0       34.448      152.717       17.183
    285 1 0      98.3032      98.1979      85.0287
    286 2 0      98.9788      99.0391      85.2086
    287 1 0      98.4262      99.7204      85.8635
    288 2 0      100.295      98.5241      85.9511
    289 1 0      100.044      97.9882      86.8648
    290 1 0       100.83      97.7962      85.3516
    291 2 0      101.191      99.7239      86.2707
    292 1 0      100.664      100.434      86.9126
    293 2 0      102.465      99.1837      87.0023
    294 1 0      102.203      98.6474      87.9114
    295 1 0      102.989      98.4551      86.3911
    296 2 0      103.385      100.408      87.3193
    297 1 0      102.861      101.122      87.9614
    298 2 0      104.651      99.8534      88.0499
    299 1 0      104.383      99.3162      88.9574
    300 1 0       105.17      99.1226      87.4375
    301 2 0       105.57      101.078      88.3665
    302 1 0      105.045      101.793      89.0079
    303 2 0      106.834      100.518      89.0959
    304 1 0      106.565      99.9829      90.0044
    305 1 0      107.353      99.7877      88.4841
    306 2 0      107.751      101.743      89.4135
    307 1 0      107.222      102.457      90.0493
    308 2 0      109.016      101.186      90.1511
    309 1 0      108.755      100.652      91.0567
    310 1 0      109.539      100.458      89.5395
    311 2 0      108.174      102.423      88.1907
    312 3 0      108.512      102.965      87.2154
    313 2 0      105.955      101.747      87.1214
    314 3 0       106.26      102.278      86.1341
    315 2 0      103.776      101.079       86.078
    316 3 0      104.086      101.612      85.0926
    317 2 0      101.602       100.41      85.0343
    318 3 0      101.925       100.95       84.061
    319 2 0      99.3504      99.7099      83.9118
    320 3 0      99.6354      100.224      82.9175
    321 2 0      109.923      102.428      90.4493
    322 1 0      109.405      103.146      91.0917
    323 2 0      111.191      101.873      91.1746
    324 1 0      110.923      101.334      92.0827
    325 1 0       111.71      101.141      90.5645
    326 2 0      112.106      103.098      91.4959
    327 1 0      111.581      103.808      92.1397
    328 2 0      113.371      102.536      92.2262
    329 1 0      113.102      101.997       93.133
    330 1 0      113.889      101.805      91.6127
    331 2 0       114.29      103.761      92.5425
    332 1 0      113.764      104.474      93.1842
    333 2 0      115.554      103.203      93.2728
    334 1 0      115.284      102.665      94.1797
    335 1 0      116.072      102.471      92.6593
    336 2 0      116.471      104.429      93.5885
    337 1 0      115.945      105.142      94.2294
    338 2 0      117.736      103.868      94.3181
    339 1 0      117.465      103.332      95.2261
    340 1 0      118.254      103.137      93.7055
    341 2 0      118.652      105.092      94.6351
    342 1 0      118.122      105.807       95.271
    343 2 0      119.917      104.535       95.373
    344 1 0      119.655      104.002      96.2778
    345 1 0       120.44      103.808      94.7608
    346 2 0      119.074      105.772      93.4119
    347 3 0      119.412      106.314      92.4364
    348 2 0      116.856      105.097      92.3432
    349 3 0      117.161      105.627      91.3557
    350 2 0      114.677       104.43      91.2993
    351 3 0      114.985      104.962      90.3124
    352 2 0      112.513      103.773      90.2612
    353 3 0      112.836      104.309      89.2826
    354 2 0      110.243      103.059      89.1681
    355 3 0       110.49      103.558      88.1443
    356 2 0      120.823      105.778      95.6706
    357 1 0      120.305      106.495      96.3132
    358 2 0      122.092      105.223       96.396
    359 1 0      121.824      104.684      97.3043
    360 1 0      122.611      104.491      95.7861
    361 2 0      123.007      106.447      96.7173
    362 1 0      122.481      107.158      97.3612
    363 2 0      124.271      105.886       97.448
    364 1 0      124.003      105.347      98.3545
    365 1 0       124.79      105.155      96.8342
    366 2 0       125.19      107.111      97.7642
    367 1 0      124.664      107.824      98.4056
    368 2 0      126.454      106.552       98.494
    369 1 0      126.184      106.015      99.4013
    370 1 0      126.972      105.821      97.8809
    371 2 0      127.372      107.779      98.8097
    372 1 0      126.846      108.492      99.4509
    373 2 0      128.637      107.218      99.5397
    374 1 0      128.365      106.682      100.448
    375 1 0      129.154      106.486       98.927
    376 2 0      129.552      108.442      99.8565
    377 1 0      129.022      109.157      100.493
    378 2 0      130.817      107.885      100.594
    379 1 0      130.556      107.351      101.499
    380 1 0       131.34      107.158      99.9823
    381 2 0      129.975      109.122      98.6331
    382 3 0      130.312      109.664      97.6576
    383 2 0      127.756      108.447      97.5646
    384 3 0      128.061      108.977      96.5769
    385 2 0      125.577       107.78      96.5208
    386 3 0      125.885      108.312      95.5338
    387 2 0      123.414      107.123      95.4829
    388 3 0      123.737      107.659      94.5045
    389 2 0      121.144      106.408      94.3898
    390 3 0      121.391      106.908      93.3661
    391 2 0      131.723      109.127      100.892
    392 1 0      131.205      109.845      101.535
    393 2 0      132.992      108.572      101.618
    394 1 0      132.724      108.033      102.526
    395 1 0      133.511       107.84      101.008
    396 2 0      133.907      109.796      101.939
    397 1 0      133.381      110.507      102.583
    398 2 0      135.171      109.235      102.669
    399 1 0      134.903      108.696      103.576
    400 1 0       135.69      108.504      102.056
    401 2 0       136.09       110.46      102.985
    402 1 0      135.564      111.173      103.627
    403 2 0      137.355      109.902      103.716
    404 1 0      137.084      109.364      104.623
    405 1 0      137.872       109.17      103.102
    406 2 0      138.272      111.128      104.031
    407 1 0      137.746      111.841      104.672
    408 2 0      139.536      110.567      104.761
    409 1 0      139.265      110.031      105.669
    410 1 0      140.054      109.836      104.148
    411 2 0      140.452      111.791      105.078
    412 1 0      139.923      112.506      105.714
    413 2 0      141.717      111.235      105.815
    414 1 0      141.456        110.7      106.721
    415 1 0       142.24      110.507      105.204
    416 2 0      140.875      112.471      103.855
    417 3 0      141.213      113.014       102.88
    418 2 0      138.657      111.796      102.786
    419 3 0      138.962      112.326      101.799
    420 2 0      136.478       111.13      101.742
    421 3 0      136.786      111.661      100.756
    422 2 0      134.314      110.472      100.704
    423 3 0      134.636      111.008      99.7255
    424 2 0      132.044      109.757       99.611
    425 3 0      132.292      110.257      98.5875
    426 1 0      142.353      112.084      106.065
    427 1 0      41.5047      98.7941      118.148
    428 2 0      41.9732      97.8145      118.017
    429 1 0      41.2211      97.0873       118.34
    430 2 0      42.3208      97.5855      116.476
    431 1 0      41.4368      97.7119      115.853
    432 1 0      43.0154      98.3332       116.11
    433 2 0      42.8976      96.1784      116.296
    434 1 0      42.1761       95.426      116.624
    435 2 0      43.2194       95.987      114.776
    436 1 0      42.3308      96.1186      114.163
    437 1 0      43.9143      96.7433      114.425
    438 2 0      43.8181      94.5535      114.595
    439 1 0      43.0995      93.7962      114.923
    440 2 0      44.1326      94.3774      113.074
    441 1 0      43.2408      94.5121      112.466
    442 1 0      44.8252      95.1371      112.725
    443 2 0      44.7316      92.9439      112.894
    444 1 0      44.0124       92.187      113.223
    445 2 0       45.045      92.7729      111.372
    446 1 0      44.1517      92.9062      110.765
    447 1 0      45.7367      93.5326      111.023
    448 2 0      45.6412      91.3401      111.193
    449 1 0      44.9233      90.5868      111.527
    450 2 0      45.9504      91.1625      109.667
    451 1 0      45.0652      91.2936      109.056
    452 1 0      46.6452      91.9185      109.316
    453 2 0      46.8806      91.1803      111.951
    454 3 0      47.8695      91.0525      112.555
    455 2 0      45.9577      92.8132      113.685
    456 3 0      46.9299      92.7097      114.312
    457 2 0      45.0461      94.4178      115.381
    458 3 0       46.021        94.31      116.005
    459 2 0      44.1385      96.0223      117.073
    460 3 0      45.1154      95.8993      117.685
    461 2 0      43.2262      97.7083      118.847
    462 3 0       44.187      97.6268      119.483
    463 2 0       46.555      89.7258      109.514
    464 1 0       45.841      88.9639      109.839
    465 2 0      46.8755      89.5512      107.994
    466 1 0       45.983      89.6874      107.384
    467 1 0      47.5658      90.3111      107.643
    468 2 0      47.4677      88.1174      107.813
    469 1 0      46.7465      87.3631      108.139
    470 2 0      47.7805      87.9476       106.29
    471 1 0      46.8889      88.0838      105.681
    472 1 0      48.4732       88.708      105.942
    473 2 0      48.3792      86.5143       106.11
    474 1 0      47.6595      85.7584      106.439
    475 2 0      48.6923      86.3418      104.589
    476 1 0      47.7996      86.4774      103.981
    477 1 0      49.3846      87.1026       104.24
    478 2 0      49.2909      84.9078      104.411
    479 1 0      48.5714      84.1522       104.74
    480 2 0      49.6044      84.7376      102.888
    481 1 0      48.7103      84.8717      102.281
    482 1 0      50.2957      85.4984      102.539
    483 2 0      50.2005      83.3054      102.709
    484 1 0      49.4819      82.5518      103.044
    485 2 0      50.5093       83.128      101.183
    486 1 0      49.6244      83.2589      100.574
    487 1 0      51.2042      83.8838      100.833
    488 2 0      51.4397      83.1459      103.468
    489 3 0      52.4283      83.0185      104.073
    490 2 0       50.517      84.7778      105.201
    491 3 0      51.4892      84.6747      105.828
    492 2 0      49.6061      86.3816      106.898
    493 3 0      50.5802      86.2763      107.524
    494 2 0      48.7032      87.9708      108.587
    495 3 0      49.6827      87.8543        109.2
    496 2 0      47.7553      89.6612      110.348
    497 3 0      48.7077      89.6154      111.019
    498 2 0      51.1138      81.6915      101.031
    499 1 0      50.3998      80.9292      101.356
    500 2 0      51.4345      81.5162       99.511
    501 1 0      50.5418      81.6527      98.9007
    502 1 0      52.1247      82.2765      99.1597
    503 2 0      52.0266      80.0829      99.3305
    504 1 0      51.3053      79.3283      99.6559
    505 2 0      52.3396      79.9124      97.8067
    506 1 0      51.4477      80.0492      97.1983
    507 1 0       53.032      80.6733      97.4589
    508 2 0      52.9378      78.4795      97.6272
    509 1 0      52.2186      77.7239      97.9554
    510 2 0      53.2511      78.3074       96.106
    511 1 0      52.3585      78.4426      95.4982
    512 1 0      53.9435      79.0678      95.7574
    513 2 0      53.8499       76.873      95.9279
    514 1 0      53.1305      76.1175      96.2564
    515 2 0      54.1634      76.7026      94.4047
    516 1 0      53.2693       76.837      93.7984
    517 1 0      54.8546      77.4636      94.0564
    518 2 0      54.7593      75.2711       94.226
    519 1 0      54.0406      74.5168      94.5613
    520 2 0       55.068      75.0935      92.7001
    521 1 0      54.1833      75.2243      92.0906
    522 1 0       55.763      75.8492      92.3503
    523 2 0      55.9987      75.1114       94.985
    524 3 0      56.9872      74.9838        95.59
    525 2 0      55.0757      76.7433      96.7184
    526 3 0       56.048      76.6404      97.3454
    527 2 0       54.165      78.3468      98.4153
    528 3 0      55.1391      78.2416      99.0408
    529 2 0      53.2623      79.9358      100.103
    530 3 0      54.2419       79.819      100.716
    531 2 0      52.3145      81.6262      101.865
    532 3 0      53.2669      81.5802      102.535
    533 2 0      55.6729      73.6571      92.5481
    534 1 0      54.9585      72.8941       92.873
    535 2 0       55.993      73.4821      91.0279
    536 1 0      55.1008      73.6181      90.4178
    537 1 0      56.6834      74.2419      90.6766
    538 2 0      56.5857      72.0487       90.847
    539 1 0      55.8639      71.2934      91.1731
    540 2 0      56.8982      71.8784      89.3241
    541 1 0      56.0066      72.0146      88.7155
    542 1 0      57.5909      72.6388      88.9759
    543 2 0      57.4969      70.4449      89.1444
    544 1 0      56.7774      69.6894      89.4726
    545 2 0      57.8102      70.2723      87.6224
    546 1 0      56.9173      70.4082      87.0154
    547 1 0      58.5023      71.0335      87.2745
    548 2 0      58.4087      68.8387      87.4443
    549 1 0      57.6891      68.0829      87.7737
    550 2 0       58.722      68.6685       85.922
    551 1 0       57.828      68.8026      85.3153
    552 1 0      59.4134      69.4292      85.5735
    553 2 0      59.3179      67.2359       85.743
    554 1 0      58.5998      66.4829       86.078
    555 2 0      59.6272      67.0587      84.2185
    556 1 0      58.7418      67.1899      83.6072
    557 1 0       60.322      67.8148       83.867
    558 2 0      60.5573      67.0768       86.502
    559 3 0      61.5462      66.9488      87.1062
    560 2 0      59.6349      68.7086       88.235
    561 3 0      60.6071      68.6055       88.862
    562 2 0       58.724      70.3121       89.932
    563 3 0      59.6982      70.2067      90.5573
    564 2 0       57.821      71.9017      91.6209
    565 3 0      58.8003      71.7852       92.234
    566 2 0      56.8733       73.592      93.3823
    567 3 0       57.826      73.5455      94.0524
    568 1 0      60.0205      66.0521       84.077
    569 1 0      42.5419      38.4912      28.4609
    570 2 0      43.4893      38.5655      29.0025
    571 1 0      43.3507      37.9731      29.9126
    572 2 0      44.6642      37.9378      28.1223
    573 1 0      44.4299      36.9155        27.83
    574 1 0      44.7809      38.4653      27.1826
    575 2 0      45.9662      37.9729      28.9274
    576 1 0      45.8578      37.4018      29.8527
    577 2 0      47.0914      37.3451      28.0385
    578 1 0      46.8461      36.3257      27.7495
    579 1 0      47.1957      37.8822      27.1008
    580 2 0      48.4231      37.3906      28.8573
    581 1 0      48.3196      36.8207      29.7854
    582 2 0      49.5352      36.7599       27.958
    583 1 0      49.2839      35.7411      27.6701
    584 1 0       49.635      37.2972      27.0196
    585 2 0       50.867      36.8058      28.7769