//data.cuo100

10370 atoms
3 atom types

0.28   61.10 xlo xhi
0.00   61.24 ylo yhi
-1.00   52.00 zlo zhi

Masses

1 15.9990 # O
2 15.9990 # O
3 63.54   # Cu
 
Atoms

1	3	0	0.8525	4.415807433	0
2	3	0	0.8525	3.647840923	4.589186904
3	3	0	0.8525	2.879874413	9.178373808
4	3	0	0.8525	2.111907903	13.76756071
5	3	0	0.8525	1.343941393	18.35674762
6	3	0	0.8525	0.575974883	22.94593452
7	3	0	0.8525	1.477824178	2.294593452
8	3	0	0.8525	0.709857668	6.883780356
9	3	0	0.8525	5.049891158	11.47296726
10	3	0	0.8525	4.281924648	16.06215416
11	3	0	0.8525	3.513958138	20.65134107
12	3	0	0.8525	2.745991628	25.24052797
13	3	0	2.5575	4.031824178	2.294593452
14	3	0	2.5575	3.263857668	6.883780356
15	3	0	2.5575	2.495891158	11.47296726
16	3	0	2.5575	1.727924648	16.06215416
17	3	0	2.5575	0.959958138	20.65134107
18	3	0	2.5575	0.191991628	25.24052797
19	3	0	2.5575	1.861807433	0
20	3	0	2.5575	1.093840923	4.589186904
21	3	0	2.5575	0.325874413	9.178373808
22	3	0	2.5575	4.665907903	13.76756071
23	3	0	2.5575	3.897941393	18.35674762
24	3	0	2.5575	3.129974883	22.94593452
25	2	0	1.41856	0.00883255	3.441890178
26	2	0	1.41856	4.34886604	8.031077082
27	2	0	1.41856	3.58089953	12.62026399
28	2	0	1.41856	2.81293302	17.20945089
29	2	0	1.41856	2.04496651	21.79863779
30	2	0	1.41856	1.277	26.3878247
31	2	0	3.12356	0.392815805	1.147296726
32	2	0	3.12356	4.732849295	5.73648363
33	2	0	3.12356	3.964882785	10.32567053
34	2	0	3.12356	3.196916275	14.91485744
35	2	0	3.12356	2.428949765	19.50404434
36	2	0	3.12356	1.660983255	24.09323125
37	2	0	1.99144	2.56283255	3.441890178
38	2	0	1.99144	1.79486604	8.031077082
39	2	0	1.99144	1.02689953	12.62026399
40	2	0	1.99144	0.25893302	17.20945089
41	2	0	1.99144	4.59896651	21.79863779
42	2	0	1.99144	3.831	26.3878247
43	2	0	0.28644	2.946815805	1.147296726
44	2	0	0.28644	2.178849295	5.73648363
45	2	0	0.28644	1.410882785	10.32567053
46	2	0	0.28644	0.642916275	14.91485744
47	2	0	0.28644	4.982949765	19.50404434
48	2	0	0.28644	4.214983255	24.09323125
49	3	0	4.2625	4.415807433	0
50	3	0	4.2625	3.647840923	4.589186904
51	3	0	4.2625	2.879874413	9.178373808
52	3	0	4.2625	2.111907903	13.76756071
53	3	0	4.2625	1.343941393	18.35674762
54	3	0	4.2625	0.575974883	22.94593452
55	3	0	4.2625	1.477824178	2.294593452
56	3	0	4.2625	0.709857668	6.883780356
57	3	0	4.2625	5.049891158	11.47296726
58	3	0	4.2625	4.281924648	16.06215416
59	3	0	4.2625	3.513958138	20.65134107
60	3	0	4.2625	2.745991628	25.24052797
61	3	0	5.9675	4.031824178	2.294593452
62	3	0	5.9675	3.263857668	6.883780356
63	3	0	5.9675	2.495891158	11.47296726
64	3	0	5.9675	1.727924648	16.06215416
65	3	0	5.9675	0.959958138	20.65134107
66	3	0	5.9675	0.191991628	25.24052797
67	3	0	5.9675	1.861807433	0
68	3	0	5.9675	1.093840923	4.589186904
69	3	0	5.9675	0.325874413	9.178373808
70	3	0	5.9675	4.665907903	13.76756071
71	3	0	5.9675	3.897941393	18.35674762
72	3	0	5.9675	3.129974883	22.94593452
73	2	0	4.82856	0.00883255	3.441890178
74	2	0	4.82856	4.34886604	8.031077082
75	2	0	4.82856	3.58089953	12.62026399
76	2	0	4.82856	2.81293302	17.20945089
77	2	0	4.82856	2.04496651	21.79863779
78	2	0	4.82856	1.277	26.3878247
79	2	0	6.53356	0.392815805	1.147296726
80	2	0	6.53356	4.732849295	5.73648363
81	2	0	6.53356	3.964882785	10.32567053
82	2	0	6.53356	3.196916275	14.91485744
83	2	0	6.53356	2.428949765	19.50404434
84	2	0	6.53356	1.660983255	24.09323125
85	2	0	5.40144	2.56283255	3.441890178
86	2	0	5.40144	1.79486604	8.031077082
87	2	0	5.40144	1.02689953	12.62026399
88	2	0	5.40144	0.25893302	17.20945089
89	2	0	5.40144	4.59896651	21.79863779
90	2	0	5.40144	3.831	26.3878247
91	2	0	3.69644	2.946815805	1.147296726
92	2	0	3.69644	2.178849295	5.73648363
93	2	0	3.69644	1.410882785	10.32567053
94	2	0	3.69644	0.642916275	14.91485744
95	2	0	3.69644	4.982949765	19.50404434
96	2	0	3.69644	4.214983255	24.09323125
97	3	0	7.6725	4.415807433	0
98	3	0	7.6725	3.647840923	4.589186904
99	3	0	7.6725	2.879874413	9.178373808
100	3	0	7.6725	2.111907903	13.76756071
101	3	0	7.6725	1.343941393	18.35674762
102	3	0	7.6725	0.575974883	22.94593452
103	3	0	7.6725	1.477824178	2.294593452
104	3	0	7.6725	0.709857668	6.883780356
105	3	0	7.6725	5.049891158	11.47296726
106	3	0	7.6725	4.281924648	16.06215416
107	3	0	7.6725	3.513958138	20.65134107
108	3	0	7.6725	2.745991628	25.24052797
109	3	0	9.3775	4.031824178	2.294593452
110	3	0	9.3775	3.263857668	6.883780356
111	3	0	9.3775	2.495891158	11.47296726
112	3	0	9.3775	1.727924648	16.06215416
113	3	0	9.3775	0.959958138	20.65134107
114	3	0	9.3775	0.191991628	25.24052797
115	3	0	9.3775	1.861807433	0
116	3	0	9.3775	1.093840923	4.589186904
117	3	0	9.3775	0.325874413	9.178373808
118	3	0	9.3775	4.665907903	13.76756071
119	3	0	9.3775	3.897941393	18.35674762
120	3	0	9.3775	3.129974883	22.94593452
121	2	0	8.23856	0.00883255	3.441890178
122	2	0	8.23856	4.34886604	8.031077082
123	2	0	8.23856	3.58089953	12.62026399
124	2	0	8.23856	2.81293302	17.20945089
125	2	0	8.23856	2.04496651	21.79863779
126	2	0	8.23856	1.277	26.3878247
127	2	0	9.94356	0.392815805	1.147296726
128	2	0	9.94356	4.732849295	5.73648363
129	2	0	9.94356	3.964882785	10.32567053
130	2	0	9.94356	3.196916275	14.91485744
131	2	0	9.94356	2.428949765	19.50404434
132	2	0	9.94356	1.660983255	24.09323125
133	2	0	8.81144	2.56283255	3.441890178
134	2	0	8.81144	1.79486604	8.031077082
135	2	0	8.81144	1.02689953	12.62026399
136	2	0	8.81144	0.25893302	17.20945089
137	2	0	8.81144	4.59896651	21.79863779
138	2	0	8.81144	3.831	26.3878247
139	2	0	7.10644	2.946815805	1.147296726
140	2	0	7.10644	2.178849295	5.73648363
141	2	0	7.10644	1.410882785	10.32567053
142	2	0	7.10644	0.642916275	14.91485744
143	2	0	7.10644	4.982949765	19.50404434
144	2	0	7.10644	4.214983255	24.09323125
145	3	0	11.0825	4.415807433	0
146	3	0	11.0825	3.647840923	4.589186904
147	3	0	11.0825	2.879874413	9.178373808
148	3	0	11.0825	2.111907903	13.76756071
149	3	0	11.0825	1.343941393	18.35674762
150	3	0	11.0825	0.575974883	22.94593452
151	3	0	11.0825	1.477824178	2.294593452
152	3	0	11.0825	0.709857668	6.883780356
153	3	0	11.0825	5.049891158	11.47296726
154	3	0	11.0825	4.281924648	16.06215416
155	3	0	11.0825	3.513958138	20.65134107
156	3	0	11.0825	2.745991628	25.24052797
157	3	0	12.7875	4.031824178	2.294593452
158	3	0	12.7875	3.263857668	6.883780356
159	3	0	12.7875	2.495891158	11.47296726
160	3	0	12.7875	1.727924648	16.06215416
161	3	0	12.7875	0.959958138	20.65134107
162	3	0	12.7875	0.191991628	25.24052797
163	3	0	12.7875	1.861807433	0
164	3	0	12.7875	1.093840923	4.589186904
165	3	0	12.7875	0.325874413	9.178373808
166	3	0	12.7875	4.665907903	13.76756071
167	3	0	12.7875	3.897941393	18.35674762
168	3	0	12.7875	3.129974883	22.94593452
169	2	0	11.64856	0.00883255	3.441890178
170	2	0	11.64856	4.34886604	8.031077082
171	2	0	11.64856	3.58089953	12.62026399
172	2	0	11.64856	2.81293302	17.20945089
173	2	0	11.64856	2.04496651	21.79863779
174	2	0	11.64856	1.277	26.3878247
175	2	0	13.35356	0.392815805	1.147296726
176	2	0	13.35356	4.732849295	5.73648363
177	2	0	13.35356	3.964882785	10.32567053
178	2	0	13.35356	3.196916275	14.91485744
179	2	0	13.35356	2.428949765	19.50404434
180	2	0	13.35356	1.660983255	24.09323125
181	2	0	12.22144	2.56283255	3.441890178
182	2	0	12.22144	1.79486604	8.031077082
183	2	0	12.22144	1.02689953	12.62026399
184	2	0	12.22144	0.25893302	17.20945089
185	2	0	12.22144	4.59896651	21.79863779
186	2	0	12.22144	3.831	26.3878247
187	2	0	10.51644	2.946815805	1.147296726
188	2	0	10.51644	2.178849295	5.73648363
189	2	0	10.51644	1.410882785	10.32567053
190	2	0	10.51644	0.642916275	14.91485744
191	2	0	10.51644	4.982949765	19.50404434
192	2	0	10.51644	4.214983255	24.09323125
193	3	0	14.4925	4.415807433	0
194	3	0	14.4925	3.647840923	4.589186904
195	3	0	14.4925	2.879874413	9.178373808
196	3	0	14.4925	2.111907903	13.76756071
197	3	0	14.4925	1.343941393	18.35674762
198	3	0	14.4925	0.575974883	22.94593452
199	3	0	14.4925	1.477824178	2.294593452
200	3	0	14.4925	0.709857668	6.883780356
201	3	0	14.4925	5.049891158	11.47296726
202	3	0	14.4925	4.281924648	16.06215416
203	3	0	14.4925	3.513958138	20.65134107
204	3	0	14.4925	2.745991628	25.24052797
205	3	0	16.1975	4.031824178	2.294593452
206	3	0	16.1975	3.263857668	6.883780356
207	3	0	16.1975	2.495891158	11.47296726
208	3	0	16.1975	1.727924648	16.06215416
209	3	0	16.1975	0.959958138	20.65134107
210	3	0	16.1975	0.191991628	25.24052797
211	3	0	16.1975	1.861807433	0
212	3	0	16.1975	1.093840923	4.589186904
213	3	0	16.1975	0.325874413	9.178373808
214	3	0	16.1975	4.665907903	13.76756071
215	3	0	16.1975	3.897941393	18.35674762
216	3	0	16.1975	3.129974883	22.94593452
217	2	0	15.05856	0.00883255	3.441890178
218	2	0	15.05856	4.34886604	8.031077082
219	2	0	15.05856	3.58089953	12.62026399
220	2	0	15.05856	2.81293302	17.20945089
221	2	0	15.05856	2.04496651	21.79863779
222	2	0	15.05856	1.277	26.3878247
223	2	0	16.76356	0.392815805	1.147296726
224	2	0	16.76356	4.732849295	5.73648363
225	2	0	16.76356	3.964882785	10.32567053
226	2	0	16.76356	3.196916275	14.91485744
227	2	0	16.76356	2.428949765	19.50404434
228	2	0	16.76356	1.660983255	24.09323125
229	2	0	15.63144	2.56283255	3.441890178
230	2	0	15.63144	1.79486604	8.031077082
231	2	0	15.63144	1.02689953	12.62026399
232	2	0	15.63144	0.25893302	17.20945089
233	2	0	15.63144	4.59896651	21.79863779
234	2	0	15.63144	3.831	26.3878247
235	2	0	13.92644	2.946815805	1.147296726
236	2	0	13.92644	2.178849295	5.73648363
237	2	0	13.92644	1.410882785	10.32567053
238	2	0	13.92644	0.642916275	14.91485744
239	2	0	13.92644	4.982949765	19.50404434
240	2	0	13.92644	4.214983255	24.09323125
241	3	0	17.9025	4.415807433	0
242	3	0	17.9025	3.647840923	4.589186904
243	3	0	17.9025	2.879874413	9.178373808
244	3	0	17.9025	2.111907903	13.76756071
245	3	0	17.9025	1.343941393	18.35674762
246	3	0	17.9025	0.575974883	22.94593452
247	3	0	17.9025	1.477824178	2.294593452
248	3	0	17.9025	0.709857668	6.883780356
249	3	0	17.9025	5.049891158	11.47296726
250	3	0	17.9025	4.281924648	16.06215416
251	3	0	17.9025	3.513958138	20.65134107
252	3	0	17.9025	2.745991628	25.24052797
253	3	0	19.6075	4.031824178	2.294593452
254	3	0	19.6075	3.263857668	6.883780356
255	3	0	19.6075	2.495891158	11.47296726
256	3	0	19.6075	1.727924648	16.06215416
257	3	0	19.6075	0.959958138	20.65134107
258	3	0	19.6075	0.191991628	25.24052797
259	3	0	19.6075	1.861807433	0
260	3	0	19.6075	1.093840923	4.589186904
261	3	0	19.6075	0.325874413	9.178373808
262	3	0	19.6075	4.665907903	13.76756071
263	3	0	19.6075	3.897941393	18.35674762
264	3	0	19.6075	3.129974883	22.94593452
265	2	0	18.46856	0.00883255	3.441890178
266	2	0	18.46856	4.34886604	8.031077082
267	2	0	18.46856	3.58089953	12.62026399
268	2	0	18.46856	2.81293302	17.20945089
269	2	0	18.46856	2.04496651	21.79863779
270	2	0	18.46856	1.277	26.3878247
271	2	0	20.17356	0.392815805	1.147296726
272	2	0	20.17356	4.732849295	5.73648363
273	2	0	20.17356	3.964882785	10.32567053
274	2	0	20.17356	3.196916275	14.91485744
275	2	0	20.17356	2.428949765	19.50404434
276	2	0	20.17356	1.660983255	24.09323125
277	2	0	19.04144	2.56283255	3.441890178
278	2	0	19.04144	1.79486604	8.031077082
279	2	0	19.04144	1.02689953	12.62026399
280	2	0	19.04144	0.25893302	17.20945089
281	2	0	19.04144	4.59896651	21.79863779
282	2	0	19.04144	3.831	26.3878247
283	2	0	17.33644	2.946815805	1.147296726
284	2	0	17.33644	2.178849295	5.73648363
285	2	0	17.33644	1.410882785	10.32567053
286	2	0	17.33644	0.642916275	14.91485744
287	2	0	17.33644	4.982949765	19.50404434
288	2	0	17.33644	4.214983255	24.09323125
289	3	0	21.3125	4.415807433	0
290	3	0	21.3125	3.647840923	4.589186904
291	3	0	21.3125	2.879874413	9.178373808
292	3	0	21.3125	2.111907903	13.76756071
293	3	0	21.3125	1.343941393	18.35674762
294	3	0	21.3125	0.575974883	22.94593452
295	3	0	21.3125	1.477824178	2.294593452
296	3	0	21.3125	0.709857668	6.883780356
297	3	0	21.3125	5.049891158	11.47296726
298	3	0	21.3125	4.281924648	16.06215416
299	3	0	21.3125	3.513958138	20.65134107
300	3	0	21.3125	2.745991628	25.24052797
301	3	0	23.0175	4.031824178	2.294593452
302	3	0	23.0175	3.263857668	6.883780356
303	3	0	23.0175	2.495891158	11.47296726
304	3	0	23.0175	1.727924648	16.06215416
305	3	0	23.0175	0.959958138	20.65134107
306	3	0	23.0175	0.191991628	25.24052797
307	3	0	23.0175	1.861807433	0
308	3	0	23.0175	1.093840923	4.589186904
309	3	0	23.0175	0.325874413	9.178373808
310	3	0	23.0175	4.665907903	13.76756071
311	3	0	23.0175	3.897941393	18.35674762
312	3	0	23.0175	3.129974883	22.94593452
313	2	0	21.87856	0.00883255	3.441890178
314	2	0	21.87856	4.34886604	8.031077082
315	2	0	21.87856	3.58089953	12.62026399
316	2	0	21.87856	2.81293302	17.20945089
317	2	0	21.87856	2.04496651	21.79863779
318	2	0	21.87856	1.277	26.3878247
319	2	0	23.58356	0.392815805	1.147296726
320	2	0	23.58356	4.732849295	5.73648363
321	2	0	23.58356	3.964882785	10.32567053
322	2	0	23.58356	3.196916275	14.91485744
323	2	0	23.58356	2.428949765	19.50404434
324	2	0	23.58356	1.660983255	24.09323125
325	2	0	22.45144	2.56283255	3.441890178
326	2	0	22.45144	1.79486604	8.031077082
327	2	0	22.45144	1.02689953	12.62026399
328	2	0	22.45144	0.25893302	17.20945089
329	2	0	22.45144	4.59896651	21.79863779
330	2	0	22.45144	3.831	26.3878247
331	2	0	20.74644	2.946815805	1.147296726
332	2	0	20.74644	2.178849295	5.73648363
333	2	0	20.74644	1.410882785	10.32567053
334	2	0	20.74644	0.642916275	14.91485744
335	2	0	20.74644	4.982949765	19.50404434
336	2	0	20.74644	4.214983255	24.09323125
337	3	0	24.7225	4.415807433	0
338	3	0	24.7225	3.647840923	4.589186904
339	3	0	24.7225	2.879874413	9.178373808
340	3	0	24.7225	2.111907903	13.76756071
341	3	0	24.7225	1.343941393	18.35674762
342	3	0	24.7225	0.575974883	22.94593452
343	3	0	24.7225	1.477824178	2.294593452
344	3	0	24.7225	0.709857668	6.883780356
345	3	0	24.7225	5.049891158	11.47296726
346	3	0	24.7225	4.281924648	16.06215416
347	3	0	24.7225	3.513958138	20.65134107
348	3	0	24.7225	2.745991628	25.24052797
349	3	0	26.4275	4.031824178	2.294593452
350	3	0	26.4275	3.263857668	6.883780356
351	3	0	26.4275	2.495891158	11.47296726
352	3	0	26.4275	1.727924648	16.06215416
353	3	0	26.4275	0.959958138	20.65134107
354	3	0	26.4275	0.191991628	25.24052797
355	3	0	26.4275	1.861807433	0
356	3	0	26.4275	1.093840923	4.589186904
357	3	0	26.4275	0.325874413	9.178373808
358	3	0	26.4275	4.665907903	13.76756071
359	3	0	26.4275	3.897941393	18.35674762
360	3	0	26.4275	3.129974883	22.94593452
361	2	0	25.28856	0.00883255	3.441890178
362	2	0	25.28856	4.34886604	8.031077082
363	2	0	25.28856	3.58089953	12.62026399
364	2	0	25.28856	2.81293302	17.20945089
365	2	0	25.28856	2.04496651	21.79863779
366	2	0	25.28856	1.277	26.3878247
367	2	0	26.99356	0.392815805	1.147296726
368	2	0	26.99356	4.732849295	5.73648363
369	2	0	26.99356	3.964882785	10.32567053
370	2	0	26.99356	3.196916275	14.91485744
371	2	0	26.99356	2.428949765	19.50404434
372	2	0	26.99356	1.660983255	24.09323125
373	2	0	25.86144	2.56283255	3.441890178
374	2	0	25.86144	1.79486604	8.031077082
375	2	0	25.86144	1.02689953	12.62026399
376	2	0	25.86144	0.25893302	17.20945089
377	2	0	25.86144	4.59896651	21.79863779
378	2	0	25.86144	3.831	26.3878247
379	2	0	24.15644	2.946815805	1.147296726
380	2	0	24.15644	2.178849295	5.73648363
381	2	0	24.15644	1.410882785	10.32567053
382	2	0	24.15644	0.642916275	14.91485744
383	2	0	24.15644	4.982949765	19.50404434
384	2	0	24.15644	4.214983255	24.09323125
385	3	0	28.1325	4.415807433	0
386	3	0	28.1325	3.647840923	4.589186904
387	3	0	28.1325	2.879874413	9.178373808
388	3	0	28.1325	2.111907903	13.76756071
389	3	0	28.1325	1.343941393	18.35674762
390	3	0	28.1325	0.575974883	22.94593452
391	3	0	28.1325	1.477824178	2.294593452
392	3	0	28.1325	0.709857668	6.883780356
393	3	0	28.1325	5.049891158	11.47296726
394	3	0	28.1325	4.281924648	16.06215416
395	3	0	28.1325	3.513958138	20.65134107
396	3	0	28.1325	2.745991628	25.24052797
397	3	0	29.8375	4.031824178	2.294593452
398	3	0	29.8375	3.263857668	6.883780356
399	3	0	29.8375	2.495891158	11.47296726
400	3	0	29.8375	1.727924648	16.06215416
401	3	0	29.8375	0.959958138	20.65134107
402	3	0	29.8375	0.191991628	25.24052797
403	3	0	29.8375	1.861807433	0
404	3	0	29.8375	1.093840923	4.589186904
405	3	0	29.8375	0.325874413	9.178373808
406	3	0	29.8375	4.665907903	13.76756071
407	3	0	29.8375	3.897941393	18.35674762
408	3	0	29.8375	3.129974883	22.94593452
409	2	0	28.69856	0.00883255	3.441890178
410	2	0	28.69856	4.34886604	8.031077082
411	2	0	28.69856	3.58089953	12.62026399
412	2	0	28.69856	2.81293302	17.20945089
413	2	0	28.69856	2.04496651	21.79863779
414	2	0	28.69856	1.277	26.3878247
415	2	0	30.40356	0.392815805	1.147296726
416	2	0	30.40356	4.732849295	5.73648363
417	2	0	30.40356	3.964882785	10.32567053
418	2	0	30.40356	3.196916275	14.91485744
419	2	0	30.40356	2.428949765	19.50404434
420	2	0	30.40356	1.660983255	24.09323125
421	2	0	29.27144	2.56283255	3.441890178
422	2	0	29.27144	1.79486604	8.031077082
423	2	0	29.27144	1.02689953	12.62026399
424	2	0	29.27144	0.25893302	17.20945089
425	2	0	29.27144	4.59896651	21.79863779
426	2	0	29.27144	3.831	26.3878247
427	2	0	27.56644	2.946815805	1.147296726
428	2	0	27.56644	2.178849295	5.73648363
429	2	0	27.56644	1.410882785	10.32567053
430	2	0	27.56644	0.642916275	14.91485744
431	2	0	27.56644	4.982949765	19.50404434
432	2	0	27.56644	4.214983255	24.09323125
433	3	0	31.5425	4.415807433	0
434	3	0	31.5425	3.647840923	4.589186904
435	3	0	31.5425	2.879874413	9.178373808
436	3	0	31.5425	2.111907903	13.76756071
437	3	0	31.5425	1.343941393	18.35674762
438	3	0	31.5425	0.575974883	22.94593452
439	3	0	31.5425	1.477824178	2.294593452
440	3	0	31.5425	0.709857668	6.883780356
441	3	0	31.5425	5.049891158	11.47296726
442	3	0	31.5425	4.281924648	16.06215416
443	3	0	31.5425	3.513958138	20.65134107
444	3	0	31.5425	2.745991628	25.24052797
445	3	0	33.2475	4.031824178	2.294593452
446	3	0	33.2475	3.263857668	6.883780356
447	3	0	33.2475	2.495891158	11.47296726
448	3	0	33.2475	1.727924648	16.06215416
449	3	0	33.2475	0.959958138	20.65134107
450	3	0	33.2475	0.191991628	25.24052797
451	3	0	33.2475	1.861807433	0
452	3	0	33.2475	1.093840923	4.589186904
453	3	0	33.2475	0.325874413	9.178373808
454	3	0	33.2475	4.665907903	13.76756071
455	3	0	33.2475	3.897941393	18.35674762
456	3	0	33.2475	3.129974883	22.94593452
457	2	0	32.10856	0.00883255	3.441890178
458	2	0	32.10856	4.34886604	8.031077082
459	2	0	32.10856	3.58089953	12.62026399
460	2	0	32.10856	2.81293302	17.20945089
461	2	0	32.10856	2.04496651	21.79863779
462	2	0	32.10856	1.277	26.3878247
463	2	0	33.81356	0.392815805	1.147296726
464	2	0	33.81356	4.732849295	5.73648363
465	2	0	33.81356	3.964882785	10.32567053
466	2	0	33.81356	3.196916275	14.91485744
467	2	0	33.81356	2.428949765	19.50404434
468	2	0	33.81356	1.660983255	24.09323125
469	2	0	32.68144	2.56283255	3.441890178
470	2	0	32.68144	1.79486604	8.031077082
471	2	0	32.68144	1.02689953	12.62026399
472	2	0	32.68144	0.25893302	17.20945089
473	2	0	32.68144	4.59896651	21.79863779
474	2	0	32.68144	3.831	26.3878247
475	2	0	30.97644	2.946815805	1.147296726
476	2	0	30.97644	2.178849295	5.73648363
477	2	0	30.97644	1.410882785	10.32567053
478	2	0	30.97644	0.642916275	14.91485744
479	2	0	30.97644	4.982949765	19.50404434
480	2	0	30.97644	4.214983255	24.09323125
481	3	0	34.9525	4.415807433	0
482	3	0	34.9525	3.647840923	4.589186904
483	3	0	34.9525	2.879874413	9.178373808
484	3	0	34.9525	2.111907903	13.76756071
485	3	0	34.9525	1.343941393	18.35674762
486	3	0	34.9525	0.575974883	22.94593452
487	3	0	34.9525	1.477824178	2.294593452
488	3	0	34.9525	0.709857668	6.883780356
489	3	0	34.9525	5.049891158	11.47296726
490	3	0	34.9525	4.281924648	16.06215416
491	3	0	34.9525	3.513958138	20.65134107
492	3	0	34.9525	2.745991628	25.24052797
493	3	0	36.6575	4.031824178	2.294593452
494	3	0	36.6575	3.263857668	6.883780356
495	3	0	36.6575	2.495891158	11.47296726
496	3	0	36.6575	1.727924648	16.06215416
497	3	0	36.6575	0.959958138	20.65134107
498	3	0	36.6575	0.191991628	25.24052797
499	3	0	36.6575	1.861807433	0
500	3	0	36.6575	1.093840923	4.589186904
501	3	0	36.6575	0.325874413	9.178373808
502	3	0	36.6575	4.665907903	13.76756071
503	3	0	36.6575	3.897941393	18.35674762
504	3	0	36.6575	3.129974883	22.94593452
505	2	0	35.51856	0.00883255	3.441890178
506	2	0	35.51856	4.34886604	8.031077082
507	2	0	35.51856	3.58089953	12.62026399
508	2	0	35.51856	2.81293302	17.20945089
509	2	0	35.51856	2.04496651	21.79863779
510	2	0	35.51856	1.277	26.3878247
511	2	0	37.22356	0.392815805	1.147296726
512	2	0	37.22356	4.732849295	5.73648363
513	2	0	37.22356	3.964882785	10.32567053
514	2	0	37.22356	3.196916275	14.91485744
515	2	0	37.22356	2.428949765	19.50404434
516	2	0	37.22356	1.660983255	24.09323125
517	2	0	36.09144	2.56283255	3.441890178
518	2	0	36.09144	1.79486604	8.031077082
519	2	0	36.09144	1.02689953	12.62026399
520	2	0	36.09144	0.25893302	17.20945089
521	2	0	36.09144	4.59896651	21.79863779
522	2	0	36.09144	3.831	26.3878247
523	2	0	34.38644	2.946815805	1.147296726
524	2	0	34.38644	2.178849295	5.73648363
525	2	0	34.38644	1.410882785	10.32567053
526	2	0	34.38644	0.642916275	14.91485744
527	2	0	34.38644	4.982949765	19.50404434
528	2	0	34.38644	4.214983255	24.09323125
529	3	0	38.3625	4.415807433	0
530	3	0	38.3625	3.647840923	4.589186904
531	3	0	38.3625	2.879874413	9.178373808
532	3	0	38.3625	2.111907903	13.76756071
533	3	0	38.3625	1.343941393	18.35674762
534	3	0	38.3625	0.575974883	22.94593452
535	3	0	38.3625	1.477824178	2.294593452
536	3	0	38.3625	0.709857668	6.883780356
537	3	0	38.3625	5.049891158	11.47296726
538	3	0	38.3625	4.281924648	16.06215416
539	3	0	38.3625	3.513958138	20.65134107
540	3	0	38.3625	2.745991628	25.24052797
541	3	0	40.0675	4.031824178	2.294593452
542	3	0	40.0675	3.263857668	6.883780356
543	3	0	40.0675	2.495891158	11.47296726
544	3	0	40.0675	1.727924648	16.06215416
545	3	0	40.0675	0.959958138	20.65134107
546	3	0	40.0675	0.191991628	25.24052797
547	3	0	40.0675	1.861807433	0
548	3	0	40.0675	1.093840923	4.589186904
549	3	0	40.0675	0.325874413	9.178373808
550	3	0	40.0675	4.665907903	13.76756071
551	3	0	40.0675	3.897941393	18.35674762
552	3	0	40.0675	3.129974883	22.94593452
553	2	0	38.92856	0.00883255	3.441890178
554	2	0	38.92856	4.34886604	8.031077082
555	2	0	38.92856	3.58089953	12.62026399
556	2	0	38.92856	2.81293302	17.20945089
557	2	0	38.92856	2.04496651	21.79863779
558	2	0	38.92856	1.277	26.3878247
559	2	0	40.63356	0.392815805	1.147296726
560	2	0	40.63356	4.732849295	5.73648363
561	2	0	40.63356	3.964882785	10.32567053
562	2	0	40.63356	3.196916275	14.91485744
563	2	0	40.63356	2.428949765	19.50404434
564	2	0	40.63356	1.660983255	24.09323125
565	2	0	39.50144	2.56283255	3.441890178
566	2	0	39.50144	1.79486604	8.031077082
567	2	0	39.50144	1.02689953	12.62026399
568	2	0	39.50144	0.25893302	17.20945089
569	2	0	39.50144	4.59896651	21.79863779
570	2	0	39.50144	3.831	26.3878247
571	2	0	37.79644	2.946815805	1.147296726
572	2	0	37.79644	2.178849295	5.73648363
573	2	0	37.79644	1.410882785	10.32567053
574	2	0	37.79644	0.642916275	14.91485744
575	2	0	37.79644	4.982949765	19.50404434
576	2	0	37.79644	4.214983255	24.09323125
577	3	0	41.7725	4.415807433	0
578	3	0	41.7725	3.647840923	4.589186904
579	3	0	41.7725	2.879874413	9.178373808
580	3	0	41.7725	2.111907903	13.76756071
581	3	0	41.7725	1.343941393	18.35674762
582	3	0	41.7725	0.575974883	22.94593452
583	3	0	41.7725	1.477824178	2.294593452
584	3	0	41.7725	0.709857668	6.883780356
585	3	0	41.7725	5.049891158	11.47296726
586	3	0	41.7725	4.281924648	16.06215416
587	3	0	41.7725	3.513958138	20.65134107
588	3	0	41.7725	2.745991628	25.24052797
589	3	0	43.4775	4.031824178	2.294593452
590	3	0	43.4775	3.263857668	6.883780356
591	3	0	43.4775	2.495891158	11.47296726
592	3	0	43.4775	1.727924648	16.06215416
593	3	0	43.4775	0.959958138	20.65134107
594	3	0	43.4775	0.191991628	25.24052797
595	3	0	43.4775	1.861807433	0
596	3	0	43.4775	1.093840923	4.589186904
597	3	0	43.4775	0.325874413	9.178373808
598	3	0	43.4775	4.665907903	13.76756071
599	3	0	43.4775	3.897941393	18.35674762
600	3	0	43.4775	3.129974883	22.94593452
601	2	0	42.33856	0.00883255	3.441890178
602	2	0	42.33856	4.34886604	8.031077082
603	2	0	42.33856	3.58089953	12.62026399
604	2	0	42.33856	2.81293302	17.20945089
605	2	0	42.33856	2.04496651	21.79863779
606	2	0	42.33856	1.277	26.3878247
607	2	0	44.04356	0.392815805	1.147296726
608	2	0	44.04356	4.732849295	5.73648363
609	2	0	44.04356	3.964882785	10.32567053
610	2	0	44.04356	3.196916275	14.91485744
611	2	0	44.04356	2.428949765	19.50404434
612	2	0	44.04356	1.660983255	24.09323125
613	2	0	42.91144	2.56283255	3.441890178
614	2	0	42.91144	1.79486604	8.031077082
615	2	0	42.91144	1.02689953	12.62026399
616	2	0	42.91144	0.25893302	17.20945089
617	2	0	42.91144	4.59896651	21.79863779
618	2	0	42.91144	3.831	26.3878247
619	2	0	41.20644	2.946815805	1.147296726
620	2	0	41.20644	2.178849295	5.73648363
621	2	0	41.20644	1.410882785	10.32567053
622	2	0	41.20644	0.642916275	14.91485744
623	2	0	41.20644	4.982949765	19.50404434
624	2	0	41.20644	4.214983255	24.09323125
625	3	0	45.1825	4.415807433	0
626	3	0	45.1825	3.647840923	4.589186904
627	3	0	45.1825	2.879874413	9.178373808
628	3	0	45.1825	2.111907903	13.76756071
629	3	0	45.1825	1.343941393	18.35674762
630	3	0	45.1825	0.575974883	22.94593452
631	3	0	45.1825	1.477824178	2.294593452
632	3	0	45.1825	0.709857668	6.883780356
633	3	0	45.1825	5.049891158	11.47296726
634	3	0	45.1825	4.281924648	16.06215416
635	3	0	45.1825	3.513958138	20.65134107
636	3	0	45.1825	2.745991628	25.24052797
637	3	0	46.8875	4.031824178	2.294593452
638	3	0	46.8875	3.263857668	6.883780356
639	3	0	46.8875	2.495891158	11.47296726
640	3	0	46.8875	1.727924648	16.06215416
641	3	0	46.8875	0.959958138	20.65134107
642	3	0	46.8875	0.191991628	25.24052797
643	3	0	46.8875	1.861807433	0
644	3	0	46.8875	1.093840923	4.589186904
645	3	0	46.8875	0.325874413	9.178373808
646	3	0	46.8875	4.665907903	13.76756071
647	3	0	46.8875	3.897941393	18.35674762
648	3	0	46.8875	3.129974883	22.94593452
649	2	0	45.74856	0.00883255	3.441890178
650	2	0	45.74856	4.34886604	8.031077082
651	2	0	45.74856	3.58089953	12.62026399
652	2	0	45.74856	2.81293302	17.20945089
653	2	0	45.74856	2.04496651	21.79863779
654	2	0	45.74856	1.277	26.3878247
655	2	0	47.45356	0.392815805	1.147296726
656	2	0	47.45356	4.732849295	5.73648363
657	2	0	47.45356	3.964882785	10.32567053
658	2	0	47.45356	3.196916275	14.91485744
659	2	0	47.45356	2.428949765	19.50404434
660	2	0	47.45356	1.660983255	24.09323125
661	2	0	46.32144	2.56283255	3.441890178
662	2	0	46.32144	1.79486604	8.031077082
663	2	0	46.32144	1.02689953	12.62026399
664	2	0	46.32144	0.25893302	17.20945089
665	2	0	46.32144	4.59896651	21.79863779
666	2	0	46.32144	3.831	26.3878247
667	2	0	44.61644	2.946815805	1.147296726
668	2	0	44.61644	2.178849295	5.73648363
669	2	0	44.61644	1.410882785	10.32567053
670	2	0	44.61644	0.642916275	14.91485744
671	2	0	44.61644	4.982949765	19.50404434
672	2	0	44.61644	4.214983255	24.09323125
673	3	0	48.5925	4.415807433	0
674	3	0	48.5925	3.647840923	4.589186904
675	3	0	48.5925	2.879874413	9.178373808
676	3	0	48.5925	2.111907903	13.76756071
677	3	0	48.5925	1.343941393	18.35674762
678	3	0	48.5925	0.575974883	22.94593452
679	3	0	48.5925	1.477824178	2.294593452
680	3	0	48.5925	0.709857668	6.883780356
681	3	0	48.5925	5.049891158	11.47296726
682	3	0	48.5925	4.281924648	16.06215416
683	3	0	48.5925	3.513958138	20.65134107
684	3	0	48.5925	2.745991628	25.24052797
685	3	0	50.2975	4.031824178	2.294593452
686	3	0	50.2975	3.263857668	6.883780356
687	3	0	50.2975	2.495891158	11.47296726
688	3	0	50.2975	1.727924648	16.06215416
689	3	0	50.2975	0.959958138	20.65134107
690	3	0	50.2975	0.191991628	25.24052797
691	3	0	50.2975	1.861807433	0
692	3	0	50.2975	1.093840923	4.589186904
693	3	0	50.2975	0.325874413	9.178373808
694	3	0	50.2975	4.665907903	13.76756071
695	3	0	50.2975	3.897941393	18.35674762
696	3	0	50.2975	3.129974883	22.94593452
697	2	0	49.15856	0.00883255	3.441890178
698	2	0	49.15856	4.34886604	8.031077082
699	2	0	49.15856	3.58089953	12.62026399
700	2	0	49.15856	2.81293302	17.20945089
701	2	0	49.15856	2.04496651	21.79863779
702	2	0	49.15856	1.277	26.3878247
703	2	0	50.86356	0.392815805	1.147296726
704	2	0	50.86356	4.732849295	5.73648363
705	2	0	50.86356	3.964882785	10.32567053
706	2	0	50.86356	3.196916275	14.91485744
707	2	0	50.86356	2.428949765	19.50404434
708	2	0	50.86356	1.660983255	24.09323125
709	2	0	49.73144	2.56283255	3.441890178
710	2	0	49.73144	1.79486604	8.031077082
711	2	0	49.73144	1.02689953	12.62026399
712	2	0	49.73144	0.25893302	17.20945089
713	2	0	49.73144	4.59896651	21.79863779
714	2	0	49.73144	3.831	26.3878247
715	2	0	48.02644	2.946815805	1.147296726
716	2	0	48.02644	2.178849295	5.73648363
717	2	0	48.02644	1.410882785	10.32567053
718	2	0	48.02644	0.642916275	14.91485744
719	2	0	48.02644	4.982949765	19.50404434
720	2	0	48.02644	4.214983255	24.09323125
721	3	0	52.0025	4.415807433	0
722	3	0	52.0025	3.647840923	4.589186904
723	3	0	52.0025	2.879874413	9.178373808
724	3	0	52.0025	2.111907903	13.76756071
725	3	0	52.0025	1.343941393	18.35674762
726	3	0	52.0025	0.575974883	22.94593452
727	3	0	52.0025	1.477824178	2.294593452
728	3	0	52.0025	0.709857668	6.883780356
729	3	0	52.0025	5.049891158	11.47296726
730	3	0	52.0025	4.281924648	16.06215416
731	3	0	52.0025	3.513958138	20.65134107
732	3	0	52.0025	2.745991628	25.24052797
733	3	0	53.7075	4.031824178	2.294593452
734	3	0	53.7075	3.263857668	6.883780356
735	3	0	53.7075	2.495891158	11.47296726
736	3	0	53.7075	1.727924648	16.06215416
737	3	0	53.7075	0.959958138	20.65134107
738	3	0	53.7075	0.191991628	25.24052797
739	3	0	53.7075	1.861807433	0
740	3	0	53.7075	1.093840923	4.589186904
741	3	0	53.7075	0.325874413	9.178373808