# LAMMPS data file written by Ovito Basic 3.0.0-dev791
312 atoms
4 atom types
0.0 20.0699996948 xlo xhi
0.0 19.9200000763 ylo yhi
0.0 13.4200000763 zlo zhi

Atoms  # charge

1 1 0.0 8.493623734 1.205160022 8.983347893
2 1 0.0 11.576375961 18.714839935 4.436651707
3 1 0.0 1.541375756 18.714839935 2.273348093
4 1 0.0 18.528623581 1.205160022 11.146652222
5 1 0.0 11.576375961 11.165160179 4.436651707
6 1 0.0 8.493623734 8.754839897 8.983347893
7 1 0.0 18.528623581 8.754839897 11.146652222
8 1 0.0 1.541375756 11.165160179 2.273348093
9 1 0.0 6.201629639 0.559751987 10.938642502
10 1 0.0 13.868369102 19.360248566 2.481358051
11 1 0.0 3.833370209 19.360248566 4.228641987
12 1 0.0 16.236629486 0.559751987 9.191357613
13 1 0.0 13.868369102 10.519752502 2.481358051
14 1 0.0 6.201629639 9.400247574 10.938642502
15 1 0.0 16.236629486 9.400247574 9.191357613
16 1 0.0 3.833370209 10.519752502 4.228641987
17 1 0.0 5.595516205 1.199183941 0.418704003
18 1 0.0 14.47448349 18.720815659 13.001296043
19 1 0.0 4.439483643 18.720815659 7.128704071
20 1 0.0 15.630516052 1.199183941 6.291296005
21 1 0.0 14.47448349 11.159183502 13.001296043
22 1 0.0 5.595516205 8.76081562 0.418704003
23 1 0.0 15.630516052 8.76081562 6.291296005
24 1 0.0 4.439483643 11.159183502 7.128704071
25 1 0.0 2.448539972 1.27687192 0.437492013
26 1 0.0 17.621459961 18.643127441 12.982508659
27 1 0.0 7.586459637 18.643127441 7.147491932
28 1 0.0 12.483539581 1.27687192 6.272508144
29 1 0.0 17.621459961 11.236872673 12.982508659
30 1 0.0 2.448539972 8.683128357 0.437492013
31 1 0.0 12.483539581 8.683128357 6.272508144
32 1 0.0 7.586459637 11.236872673 7.147491932
33 1 0.0 1.461096048 0.553775966 10.97487545
34 1 0.0 18.608903885 19.366224289 2.445123911
35 1 0.0 8.573904037 19.366224289 4.264875889
36 1 0.0 11.496095657 0.553775966 9.155124664
37 1 0.0 18.608903885 10.513776779 2.445123911
38 1 0.0 1.461096048 9.406224251 10.97487545
39 1 0.0 11.496095657 9.406224251 9.155124664
40 1 0.0 8.573904037 10.513776779 4.264875889
41 1 0.0 3.781188011 1.151376009 9.05984211
42 1 0.0 16.28881073 18.768623352 4.360157967
43 1 0.0 6.253811836 18.768623352 2.349842072
44 1 0.0 13.816188812 1.151376009 11.070158005
45 1 0.0 16.28881073 11.111375809 4.360157967
46 1 0.0 3.781188011 8.808624268 9.05984211
47 1 0.0 13.816188812 8.808624268 11.070158005
48 1 0.0 6.253811836 11.111375809 2.349842072
49 1 0.0 8.493623734 16.543560028 9.047763824
50 1 0.0 11.576375961 3.37643981 4.372236252
51 1 0.0 1.541375756 3.37643981 2.337764025
52 1 0.0 18.528623581 16.543560028 11.08223629
53 1 0.0 11.576375961 6.58355999 4.372236252
54 1 0.0 8.493623734 13.336440086 9.047763824
55 1 0.0 18.528623581 13.336440086 11.08223629
56 1 0.0 1.541375756 6.58355999 2.337764025
57 1 0.0 6.173531532 17.358287811 10.939983368
58 1 0.0 13.896467209 2.561712027 2.480015993
59 1 0.0 3.861468077 2.561712027 4.229983807
60 1 0.0 16.208532333 17.358287811 9.190016747
61 1 0.0 13.896467209 7.398287773 2.480015993
62 1 0.0 6.173531532 12.521712303 10.939983368
63 1 0.0 16.208532333 12.521712303 9.190016747
64 1 0.0 3.861468077 7.398287773 4.229983807
65 1 0.0 2.406393051 16.475831985 0.360998005
66 1 0.0 17.663606644 3.444168091 13.059001923
67 1 0.0 7.628607273 3.444168091 7.070997715
68 1 0.0 12.441392899 16.475831985 6.349002361
69 1 0.0 17.663606644 6.51583147 13.059001923
70 1 0.0 2.406393051 13.404168129 0.360998005
71 1 0.0 12.441392899 13.404168129 6.349002361
72 1 0.0 7.628607273 6.51583147 7.070997715
73 1 0.0 1.408914089 17.322431564 10.969508171
74 1 0.0 18.661085129 2.597568035 2.450492144
75 1 0.0 8.626086235 2.597568035 4.259507656
76 1 0.0 11.443914413 17.322431564 9.160491943
77 1 0.0 18.661085129 7.362432003 2.450492144
78 1 0.0 1.408914089 12.55756855 10.969508171
79 1 0.0 11.443914413 12.55756855 9.160491943
80 1 0.0 8.626086235 7.362432003 4.259507656
81 2 0.0 5.515235901 16.489776611 0.491172016
82 2 0.0 14.554763794 3.430223942 12.928828239
83 2 0.0 4.519763947 3.430223942 7.201171875
84 2 0.0 15.550235748 16.489776611 6.218828201
85 2 0.0 14.554763794 6.529776096 12.928828239
86 2 0.0 5.515235901 13.390223503 0.491172016
87 2 0.0 15.550235748 13.390223503 6.218828201
88 2 0.0 4.519763947 6.529776096 7.201171875
89 2 0.0 3.801258087 16.449935913 9.163175583
90 2 0.0 16.268741608 3.470063925 4.256824017
91 2 0.0 6.23374176 3.470063925 2.453176022
92 2 0.0 13.836257935 16.449935913 10.966824532
93 2 0.0 16.268741608 6.489935875 4.256824017
94 2 0.0 3.801258087 13.430064201 9.163175583
95 2 0.0 13.836257935 13.430064201 10.966824532
96 2 0.0 6.23374176 6.489935875 2.453176022
97 3 0.0 7.482095718 1.324679971 10.203226089
98 3 0.0 12.587903976 18.595319748 3.216773987
99 3 0.0 2.552904129 18.595319748 3.493225813
100 3 0.0 17.517095566 1.324679971 9.926774025
101 3 0.0 12.587903976 11.284680367 3.216773987
102 3 0.0 7.482095718 8.63531971 10.203226089
103 3 0.0 17.517095566 8.63531971 9.926774025
104 3 0.0 2.552904129 11.284680367 3.493225813
105 3 0.0 6.211665154 1.237032056 12.398737907
106 3 0.0 13.858335495 18.68296814 1.02126205
107 3 0.0 3.823334694 18.68296814 5.688738346
108 3 0.0 16.246664047 1.237032056 7.73126173
109 3 0.0 13.858335495 11.197031975 1.02126205
110 3 0.0 6.211665154 8.722968102 12.398737907
111 3 0.0 16.246664047 8.722968102 7.73126173
112 3 0.0 3.823334694 11.197031975 5.688738346
113 3 0.0 3.999951124 1.205160022 0.352946013
114 3 0.0 16.070049286 18.714839935 13.067053795
115 3 0.0 6.035048962 18.714839935 7.06294632
116 3 0.0 14.034950256 1.205160022 6.357053757
117 3 0.0 16.070049286 11.165160179 13.067053795
118 3 0.0 3.999951124 8.754839897 0.352946013
119 3 0.0 14.034950256 8.754839897 6.357053757
120 3 0.0 6.035048962 11.165160179 7.06294632
121 3 0.0 2.006999969 1.137431979 12.323586464
122 3 0.0 18.062999725 18.782567978 1.09641397
123 3 0.0 8.027999878 18.782567978 5.613585949
124 3 0.0 12.042000771 1.137431979 7.806413651
125 3 0.0 18.062999725 11.097432137 1.09641397
126 3 0.0 2.006999969 8.82256794 12.323586464
127 3 0.0 12.042000771 8.82256794 7.806413651
128 3 0.0 8.027999878 11.097432137 5.613585949
129 3 0.0 2.37428093 1.179263949 9.800625801
130 3 0.0 17.695718765 18.740736008 3.619373798
131 3 0.0 7.660718918 18.740736008 3.09062624
132 3 0.0 12.409280777 1.179263949 10.329374313
133 3 0.0 17.695718765 11.139264107 3.619373798
134 3 0.0 2.37428093 8.78073597 9.800625801
135 3 0.0 12.409280777 8.78073597 10.329374313
136 3 0.0 7.660718918 11.139264107 3.09062624
137 3 0.0 4.830849171 0.876479983 10.17504406
138 3 0.0 15.239151001 19.043519974 3.244956017
139 3 0.0 5.204150677 19.043519974 3.465043783
140 3 0.0 14.865848541 0.876479983 9.954956055
141 3 0.0 15.239151001 10.836481094 3.244956017
142 3 0.0 4.830849171 9.083519936 10.17504406
143 3 0.0 14.865848541 9.083519936 9.954956055
144 3 0.0 5.204150677 10.836481094 3.465043783
145 3 0.0 7.526249886 16.914072037 10.251538277
146 3 0.0 12.543749809 3.00592804 3.168462038
147 3 0.0 2.508749962 3.00592804 3.541537762
148 3 0.0 17.561248779 16.914072037 9.878461838
149 3 0.0 12.543749809 6.954071999 3.168462038
150 3 0.0 7.526249886 12.965928078 10.251538277
151 3 0.0 17.561248779 12.965928078 9.878461838
152 3 0.0 2.508749962 6.954071999 3.541537762
153 3 0.0 6.179553032 16.904111862 12.506098747
154 3 0.0 13.890446663 3.015887976 0.913901985
155 3 0.0 3.855446815 3.015887976 5.796097755
156 3 0.0 16.214553833 16.904111862 7.623901844
157 3 0.0 13.890446663 6.944111824 0.913901985
158 3 0.0 6.179553032 12.975887299 12.506098747
159 3 0.0 16.214553833 12.975887299 7.623901844
160 3 0.0 3.855446815 6.944111824 5.796097755
161 3 0.0 3.975867033 16.850328445 0.434808016
162 3 0.0 16.094133377 3.069672108 12.985192299
163 3 0.0 6.059133053 3.069672108 7.144808292
164 3 0.0 14.010866165 16.850328445 6.275191784
165 3 0.0 16.094133377 6.89032793 12.985192299
166 3 0.0 3.975867033 13.029671669 0.434808016
167 3 0.0 14.010866165 13.029671669 6.275191784
168 3 0.0 6.059133053 6.89032793 7.144808292
169 3 0.0 1.824362874 16.62921524 12.412158012
170 3 0.0 18.245635986 3.290783882 1.007841945
171 3 0.0 8.210637093 3.290783882 5.702157974
172 3 0.0 11.859362602 16.62921524 7.717842102
173 3 0.0 18.245635986 6.669216156 1.007841945
174 3 0.0 1.824362874 13.25078392 12.412158012
175 3 0.0 11.859362602 13.25078392 7.717842102
176 3 0.0 8.210637093 6.669216156 5.702157974
177 3 0.0 2.468610048 17.077415466 9.88785553
178 3 0.0 17.601388931 2.842584133 3.532144308
179 3 0.0 7.566390038 2.842584133 3.17785573
180 3 0.0 12.503610611 17.077415466 10.242144585
181 3 0.0 17.601388931 7.117415905 3.532144308
182 3 0.0 2.468610048 12.802584648 9.88785553
183 3 0.0 12.503610611 12.802584648 10.242144585
184 3 0.0 7.566390038 7.117415905 3.17785573
185 3 0.0 5.075703144 16.613279343 10.208594322
186 3 0.0 14.994297028 3.30671978 3.211405993
187 3 0.0 4.959296703 3.30671978 3.498593807
188 3 0.0 15.110702515 16.613279343 9.921405792
189 3 0.0 14.994297028 6.653279781 3.211405993
190 3 0.0 5.075703144 13.266719818 10.208594322
191 3 0.0 15.110702515 13.266719818 9.921405792
192 3 0.0 4.959296703 6.653279781 3.498593807
193 3 0.0 6.245783806 18.886152267 10.973534584
194 3 0.0 13.824214935 1.033848047 2.446465969
195 3 0.0 3.789216042 1.033848047 4.263534069
196 3 0.0 16.280784607 18.886152267 9.15646553
197 3 0.0 13.824214935 8.926152229 2.446465969
198 3 0.0 6.245783806 10.993848801 10.973534584
199 3 0.0 16.280784607 10.993848801 9.15646553
200 3 0.0 3.789216042 8.926152229 4.263534069
201 3 0.0 1.585530043 18.872207642 11.080893517
202 3 0.0 18.484470367 1.047791958 2.339106083
203 3 0.0 8.449469566 1.047791958 4.370893955
204 3 0.0 11.620530128 18.872207642 9.049106598
205 3 0.0 18.484470367 8.912208557 2.339106083
206 3 0.0 1.585530043 11.007792473 11.080893517
207 3 0.0 11.620530128 11.007792473 9.049106598
208 3 0.0 8.449469566 8.912208557 4.370893955
209 3 0.0 8.210637093 2.505935907 8.226460457
210 3 0.0 11.859362602 17.414064407 5.193540096
211 3 0.0 1.824362993 17.414064407 1.516460061
212 3 0.0 18.245635986 2.505935907 11.903539658
213 3 0.0 11.859362602 12.465936661 5.193540096
214 3 0.0 8.210637093 7.454063892 8.226460457
215 3 0.0 18.245635986 7.454063892 11.903539658
216 3 0.0 1.824362993 12.465936661 1.516460061
217 3 0.0 8.34912014 0.021911999 7.814466
218 3 0.0 11.720879555 19.898088455 5.605534077
219 3 0.0 1.685879827 19.898088455 1.104466081
220 3 0.0 18.384119034 0.021911999 12.315533638
221 3 0.0 11.720879555 9.981911659 5.605534077
222 3 0.0 8.34912014 9.938088417 7.814466
223 3 0.0 18.384119034 9.938088417 12.315533638
224 3 0.0 1.685879827 9.981911659 1.104466081
225 3 0.0 7.979831696 17.330400467 7.795678139
226 3 0.0 12.090167999 2.589599848 5.624321938
227 3 0.0 2.055168152 2.589599848 1.08567822
228 3 0.0 18.014831543 17.330400467 12.334321976
229 3 0.0 12.090167999 7.370399952 5.624321938
230 3 0.0 7.979831696 12.549599648 7.795678139
231 3 0.0 18.014831543 12.549599648 12.334321976
232 3 0.0 2.055168152 7.370399952 1.08567822
233 3 0.0 3.706928968 2.57964015 8.288191795
234 3 0.0 16.363071442 17.340358734 5.131808281
235 3 0.0 6.328070641 17.340358734 1.578191876
236 3 0.0 13.741929054 2.57964015 11.841808319
237 3 0.0 16.363071442 12.539640427 5.131808281
238 3 0.0 3.706928968 7.380360126 8.288191795
239 3 0.0 13.741929054 7.380360126 11.841808319
240 3 0.0 6.328070641 12.539640427 1.578191876
241 3 0.0 4.08825922 0.059760001 8.025159836
242 3 0.0 15.981740952 19.860239029 5.39484024
243 3 0.0 5.946740627 19.860239029 1.315159917
244 3 0.0 14.123258591 0.059760001 12.104840279
245 3 0.0 15.981740952 10.019760132 5.39484024
246 3 0.0 4.08825922 9.900239944 8.025159836
247 3 0.0 14.123258591 9.900239944 12.104840279
248 3 0.0 5.946740627 10.019760132 1.315159917
249 3 0.0 3.83336997 17.412071228 7.823860168
250 3 0.0 16.236629486 2.507928133 5.596139908
251 3 0.0 6.201630116 2.507928133 1.113860011
252 3 0.0 13.868369102 17.412071228 12.306139946
253 3 0.0 16.236629486 7.452072144 5.596139908
254 3 0.0 3.83336997 12.467928886 7.823860168
255 3 0.0 13.868369102 12.467928886 12.306139946
256 3 0.0 6.201630116 7.452072144 1.113860011
257 3 0.0 20.037887573 0.846599996 10.660847664
258 3 0.0 0.032111999 19.073400497 2.759151936
259 3 0.0 10.067111969 19.073400497 3.950848103
260 3 0.0 10.002887726 0.846599996 9.469152451
261 3 0.0 0.032111999 10.806600571 2.759151936
262 3 0.0 20.037887573 9.113400459 10.660847664
263 3 0.0 10.002887726 9.113400459 9.469152451
264 3 0.0 10.067111969 10.806600571 3.950848103
265 3 0.0 20.037887573 16.802520752 10.631323814
266 3 0.0 0.032111999 3.11748004 2.788676023
267 3 0.0 10.067111969 3.11748004 3.921324015
268 3 0.0 10.002887726 16.802520752 9.4986763
269 3 0.0 0.032111999 6.842520237 2.788676023
270 3 0.0 20.037887573 13.077479362 10.631323814
271 3 0.0 10.002887726 13.077479362 9.4986763
272 3 0.0 10.067111969 6.842520237 3.921324015
273 3 0.0 8.583939552 14.940000534 8.718974113
274 3 0.0 11.486060143 4.980000019 4.70102644
275 3 0.0 1.451060772 4.980000019 2.008973837
276 3 0.0 18.618940353 14.940000534 11.411026001
277 3 0.0 4.104314804 14.940000534 8.755208015
278 3 0.0 15.965683937 4.980000019 4.664792061
279 3 0.0 5.930684566 4.980000019 2.045207739
280 3 0.0 14.139315605 14.940000534 11.374792099
281 3 0.0 5.742026806 14.940000534 0.791779995
282 3 0.0 14.327972412 4.980000019 12.628219604
283 3 0.0 4.292973042 4.980000019 7.501780033
284 3 0.0 15.77702713 14.940000534 5.918220043
285 3 0.0 2.185622931 14.940000534 0.778360009
286 3 0.0 17.884376526 4.980000019 12.641640663
287 3 0.0 7.849376678 4.980000019 7.488359451
288 3 0.0 12.220623016 14.940000534 5.931640148
289 3 0.0 3.504222155 14.940000534 4.717130184
290 3 0.0 16.565776825 4.980000019 8.702869415
291 3 0.0 6.530777931 4.980000019 11.427130699
292 3 0.0 13.539221764 14.940000534 1.992869973
293 3 0.0 7.566390038 14.940000534 5.08618021
294 3 0.0 12.503610611 4.980000019 8.333820343
295 3 0.0 2.46860981 4.980000019 11.796179771
296 3 0.0 17.601388931 14.940000534 1.623819947
297 4 0.0 16.242450714 5.625029564 9.35116291
298 4 0.0 3.827549696 14.294970512 4.068836689
299 4 0.0 13.862549782 14.294970512 2.641163111
300 4 0.0 6.207448959 5.625029564 10.778837204
301 4 0.0 3.827549696 15.585029602 4.068836689
302 4 0.0 16.242450714 4.334970474 9.35116291
303 4 0.0 6.207448959 4.334970474 10.778837204
304 4 0.0 13.862549782 15.585029602 2.641163111
305 4 0.0 12.180282593 4.251465797 8.88664341
306 4 0.0 7.889717102 15.668534279 4.53335619
307 4 0.0 17.924716949 15.668534279 2.17664361
308 4 0.0 2.145281553 4.251465797 11.243356705
309 4 0.0 7.889717102 14.211465836 4.53335619
310 4 0.0 12.180282593 5.708534241 8.88664341
311 4 0.0 2.145281553 5.708534241 11.243356705
312 4 0.0 17.924716949 14.211465836 2.17664361
