# Converted from POSCAR to lammps format

3 atoms
2 atom types

0.000000    3.240464   xlo xhi
0.000000    2.806324   ylo yhi
0.000000    6.059359   zlo zhi

 -1.620232    0.000000    0.000000   xy xz yz

Atoms

   1  1    0.0   0.000000 0.000000 0.000000
   2  2    0.0   0.000000 1.870883 1.554463
   3  2    0.0   1.620232 0.935441 4.504896
