# Converted from POSCAR to lammps format

6 atoms
2 atom types

0.000000    3.199090   xlo xhi
0.000000    2.770494   ylo yhi
0.000000   12.421990   zlo zhi

 -1.599545    0.000000    0.000000   xy xz yz

Atoms

   1  1    0.0   -0.000000 1.846996 3.105498
   2  1    0.0   1.599545 0.923498 9.316492
   3  2    0.0   -0.000000 1.846996 7.753523
   4  2    0.0   1.599545 0.923498 4.668467
   5  2    0.0   1.599545 0.923498 1.542528
   6  2    0.0   -0.000000 1.846996 10.879463
