# Converted from POSCAR to lammps format

8 atoms
2 atom types

0.000000    4.800000   xlo xhi
0.000000    4.800000   ylo yhi
0.000000    4.800000   zlo zhi

  0.000000    0.000000    0.000000   xy xz yz

Atoms

   1  1    0.0   0.000000 0.000000 0.000000
   2  1    0.0   0.000000 2.400000 2.400000
   3  1    0.0   2.400000 0.000000 2.400000
   4  1    0.0   2.400000 2.400000 0.000000
   5  2    0.0   0.000000 0.000000 2.400000
   6  2    0.0   0.000000 2.400000 0.000000
   7  2    0.0   2.400000 0.000000 0.000000
   8  2    0.0   2.400000 2.400000 2.400000
