# LAMMPS data file written by Ovito Basic 3.0.0-dev791
132 atoms
3 atom types
0.0 7.6730313301 xlo xhi
0.0 13.2900857925 ylo yhi
0.0 57.5900268555 zlo zhi

Atoms  # charge

1 1 0.0 4.558709145 10.773109436 35.646331787
2 1 0.0 4.558709145 4.609242916 35.646331787
3 1 0.0 0.999999762 10.773109436 35.646331787
4 1 0.0 0.999999762 4.609242916 35.646331787
5 1 0.0 6.338065147 7.691176414 35.646331787
6 1 0.0 6.338065147 1.527310848 35.646331787
7 1 0.0 2.779354572 7.691176414 35.646331787
8 1 0.0 2.779354572 1.527310848 35.646331787
9 1 0.0 4.558709145 10.773109436 32.026977539
10 1 0.0 4.558709145 4.609242916 32.026977539
11 1 0.0 0.999999762 10.773109436 32.026977539
12 1 0.0 0.999999762 4.609242916 32.026977539
13 1 0.0 6.338065147 7.691176414 32.026977539
14 1 0.0 6.338065147 1.527310848 32.026977539
15 1 0.0 2.779354572 7.691176414 32.026977539
16 1 0.0 2.779354572 1.527310848 32.026977539
17 2 0.0 6.338064194 11.800420761 33.836654663
18 2 0.0 6.338064194 5.636555195 33.836654663
19 2 0.0 2.779354572 11.800420761 33.836654663
20 2 0.0 2.779354572 5.636555195 33.836654663
21 2 0.0 4.558709145 8.71848774 33.836654663
22 2 0.0 4.558709145 2.554621458 33.836654663
23 2 0.0 0.999999762 8.71848774 33.836654663
24 2 0.0 0.999999762 2.554621458 33.836654663
25 3 0.0 1.2788378 11.075070381 27.15221405
26 3 0.0 1.2788378 6.645041943 27.15221405
27 3 0.0 1.2788378 2.215013504 27.15221405
28 3 0.0 6.394191265 11.075070381 27.15221405
29 3 0.0 6.394191265 6.645041943 27.15221405
30 3 0.0 6.394191265 2.215013504 27.15221405
31 3 0.0 3.836514473 11.075070381 27.15221405
32 3 0.0 3.836514473 6.645041943 27.15221405
33 3 0.0 3.836514473 2.215013504 27.15221405
34 3 0.0 5.115354061 8.860055923 27.15221405
35 3 0.0 5.115354061 4.430027962 27.15221405
36 3 0.0 5.115354061 0.0 27.15221405
37 3 0.0 2.557676554 8.860055923 27.15221405
38 3 0.0 2.557676554 4.430027962 27.15221405
39 3 0.0 2.557676554 0.0 27.15221405
40 3 0.0 0.0 8.860055923 27.15221405
41 3 0.0 0.0 4.430027962 27.15221405
42 3 0.0 0.0 0.0 27.15221405
43 3 0.0 1.278836727 12.551747322 22.978891373
44 3 0.0 1.278836727 8.121717453 22.978891373
45 3 0.0 1.278836727 3.691690207 22.978891373
46 3 0.0 6.394189835 12.551747322 22.978891373
47 3 0.0 6.394189835 8.121717453 22.978891373
48 3 0.0 6.394189835 3.691690207 22.978891373
49 3 0.0 3.836513519 12.551747322 22.978891373
50 3 0.0 3.836513519 8.121717453 22.978891373
51 3 0.0 3.836513519 3.691690207 22.978891373
52 3 0.0 2.5576756 10.336733818 22.978891373
53 3 0.0 2.5576756 5.906705379 22.978891373
54 3 0.0 2.5576756 1.476676702 22.978891373
55 3 0.0 0.0 10.336733818 22.978891373
56 3 0.0 0.0 5.906705379 22.978891373
57 3 0.0 0.0 1.476676702 22.978891373
58 3 0.0 5.115352154 10.336733818 22.978891373
59 3 0.0 5.115352154 5.906705379 22.978891373
60 3 0.0 5.115352154 1.476676702 22.978891373
61 3 0.0 5.115354061 11.813406944 25.067131042
62 3 0.0 5.115354061 7.383378029 25.067131042
63 3 0.0 5.115354061 2.953351736 25.067131042
64 3 0.0 2.557676554 11.813406944 25.067131042
65 3 0.0 2.557676554 7.383378029 25.067131042
66 3 0.0 2.557676554 2.953351736 25.067131042
67 3 0.0 0.0 11.813406944 25.067131042
68 3 0.0 0.0 7.383378029 25.067131042
69 3 0.0 0.0 2.953351736 25.067131042
70 3 0.0 6.394193172 9.59839344 25.067131042
71 3 0.0 6.394193172 5.168365002 25.067131042
72 3 0.0 6.394193172 0.738336861 25.067131042
73 3 0.0 3.836516142 9.59839344 25.067131042
74 3 0.0 3.836516142 5.168365002 25.067131042
75 3 0.0 3.836516142 0.738336861 25.067131042
76 3 0.0 1.278839707 9.59839344 25.067131042
77 3 0.0 1.278839707 5.168365002 25.067131042
78 3 0.0 1.278839707 0.738336861 25.067131042
79 3 0.0 1.2788378 11.075070381 20.88850975
80 3 0.0 1.2788378 6.645041943 20.88850975
81 3 0.0 1.2788378 2.215013504 20.88850975
82 3 0.0 6.394191265 11.075070381 20.88850975
83 3 0.0 6.394191265 6.645041943 20.88850975
84 3 0.0 6.394191265 2.215013504 20.88850975
85 3 0.0 3.836514473 11.075070381 20.88850975
86 3 0.0 3.836514473 6.645041943 20.88850975
87 3 0.0 3.836514473 2.215013504 20.88850975
88 3 0.0 5.115354061 8.860055923 20.88850975
89 3 0.0 5.115354061 4.430027962 20.88850975
90 3 0.0 5.115354061 0.0 20.88850975
91 3 0.0 2.557676554 8.860055923 20.88850975
92 3 0.0 2.557676554 4.430027962 20.88850975
93 3 0.0 2.557676554 0.0 20.88850975
94 3 0.0 0.0 8.860055923 20.88850975
95 3 0.0 0.0 4.430027962 20.88850975
96 3 0.0 0.0 0.0 20.88850975
97 3 0.0 1.278836727 12.551747322 16.701507568
98 3 0.0 1.278836727 8.121717453 16.701507568
99 3 0.0 1.278836727 3.691690207 16.701507568
100 3 0.0 6.394189835 12.551747322 16.701507568
101 3 0.0 6.394189835 8.121717453 16.701507568
102 3 0.0 6.394189835 3.691690207 16.701507568
103 3 0.0 3.836513519 12.551747322 16.701507568
104 3 0.0 3.836513519 8.121717453 16.701507568
105 3 0.0 3.836513519 3.691690207 16.701507568
106 3 0.0 2.5576756 10.336733818 16.701507568
107 3 0.0 2.5576756 5.906705379 16.701507568
108 3 0.0 2.5576756 1.476676702 16.701507568
109 3 0.0 0.0 10.336733818 16.701507568
110 3 0.0 0.0 5.906705379 16.701507568
111 3 0.0 0.0 1.476676702 16.701507568
112 3 0.0 5.115352154 10.336733818 16.701507568
113 3 0.0 5.115352154 5.906705379 16.701507568
114 3 0.0 5.115352154 1.476676702 16.701507568
115 3 0.0 5.115354061 11.813406944 18.795009613
116 3 0.0 5.115354061 7.383378029 18.795009613
117 3 0.0 5.115354061 2.953351736 18.795009613
118 3 0.0 2.557676554 11.813406944 18.795009613
119 3 0.0 2.557676554 7.383378029 18.795009613
120 3 0.0 2.557676554 2.953351736 18.795009613
121 3 0.0 0.0 11.813406944 18.795009613
122 3 0.0 0.0 7.383378029 18.795009613
123 3 0.0 0.0 2.953351736 18.795009613
124 3 0.0 6.394193172 9.59839344 18.795009613
125 3 0.0 6.394193172 5.168365002 18.795009613
126 3 0.0 6.394193172 0.738336861 18.795009613
127 3 0.0 3.836516142 9.59839344 18.795009613
128 3 0.0 3.836516142 5.168365002 18.795009613
129 3 0.0 3.836516142 0.738336861 18.795009613
130 3 0.0 1.278839707 9.59839344 18.795009613
131 3 0.0 1.278839707 5.168365002 18.795009613
132 3 0.0 1.278839707 0.738336861 18.795009613
