# LAMMPS data file written by Ovito Basic 3.0.0-dev791
56 atoms
3 atom types
0.0 8.4224739075 xlo xhi
0.0 8.4224739075 ylo yhi
0.0 8.4224739075 zlo zhi

Atoms  # charge

1 1 0.0 4.211236954 0.0 4.211236954
2 1 0.0 2.105618477 2.105618477 2.105618477
3 1 0.0 4.211236954 4.211236954 0.0
4 1 0.0 2.105618477 6.316855431 6.316855431
5 1 0.0 0.0 0.0 0.0
6 1 0.0 6.316855431 2.105618477 6.316855431
7 1 0.0 0.0 4.211236954 4.211236954
8 1 0.0 6.316855431 6.316855431 2.105618477
9 2 0.0 1.052809238 7.369664669 3.158427715
10 2 0.0 3.158427715 5.264046192 3.158427715
11 2 0.0 3.158427715 7.369664669 1.052809238
12 2 0.0 1.052809238 5.264046192 1.052809238
13 2 0.0 1.052809238 3.158427715 7.369664669
14 2 0.0 3.158427715 1.052809238 7.369664669
15 2 0.0 3.158427715 3.158427715 5.264046192
16 2 0.0 1.052809238 1.052809238 5.264046192
17 2 0.0 5.264046192 7.369664669 7.369664669
18 2 0.0 7.369664669 5.264046192 7.369664669
19 2 0.0 7.369664669 7.369664669 5.264046192
20 2 0.0 5.264046192 5.264046192 5.264046192
21 2 0.0 5.264046192 3.158427715 3.158427715
22 2 0.0 7.369664669 1.052809238 3.158427715
23 2 0.0 7.369664669 3.158427715 1.052809238
24 2 0.0 5.264046192 1.052809238 1.052809238
25 3 0.0 7.258982182 1.163491726 1.163491726
26 3 0.0 1.163491726 7.258982182 1.163491726
27 3 0.0 5.37472868 1.163491726 3.047745228
28 3 0.0 3.047745228 7.258982182 3.047745228
29 3 0.0 3.269110203 0.942126751 0.942126751
30 3 0.0 0.942126751 3.269110203 0.942126751
31 3 0.0 0.942126751 0.942126751 3.269110203
32 3 0.0 3.269110203 3.269110203 3.269110203
33 3 0.0 7.258982182 5.37472868 5.37472868
34 3 0.0 1.163491726 3.047745228 5.37472868
35 3 0.0 5.37472868 5.37472868 7.258982182
36 3 0.0 3.047745228 3.047745228 7.258982182
37 3 0.0 3.269110203 5.153363705 5.153363705
38 3 0.0 0.942126751 7.480347157 5.153363705
39 3 0.0 0.942126751 5.153363705 7.480347157
40 3 0.0 3.269110203 7.480347157 7.480347157
41 3 0.0 3.047745228 1.163491726 5.37472868
42 3 0.0 5.37472868 7.258982182 5.37472868
43 3 0.0 1.163491726 1.163491726 7.258982182
44 3 0.0 7.258982182 7.258982182 7.258982182
45 3 0.0 7.480347157 0.942126751 5.153363705
46 3 0.0 5.153363705 3.269110203 5.153363705
47 3 0.0 5.153363705 0.942126751 7.480347157
48 3 0.0 7.480347157 3.269110203 7.480347157
49 3 0.0 3.047745228 5.37472868 1.163491726
50 3 0.0 5.37472868 3.047745228 1.163491726
51 3 0.0 1.163491726 5.37472868 3.047745228
52 3 0.0 7.258982182 3.047745228 3.047745228
53 3 0.0 7.480347157 5.153363705 0.942126751
54 3 0.0 5.153363705 7.480347157 0.942126751
55 3 0.0 5.153363705 5.153363705 3.269110203
56 3 0.0 7.480347157 7.480347157 3.269110203
