LAMMPS data file via write_data, version 12 Dec 2018, timestep = 16200000

5680 atoms
3 atom types

7.6554815563193529e+01 1.1544518443680485e+02 xlo xhi
7.6554815563193529e+01 1.1544518443680485e+02 ylo yhi
7.6554815563193529e+01 1.1544518443680485e+02 zlo zhi

Masses

1 1.008
2 12
3 14

Atoms # charge

3070 1 1.0952550386614282e-01 7.9664595645419340e+01 8.1698526316076098e+01 7.8920926548024681e+01 0 0 0
3069 2 -8.8071360875513260e-02 7.9115583115778207e+01 8.2023391518791925e+01 7.8063675684100801e+01 0 0 0
3075 1 5.4102514377406798e-02 7.9901136222055925e+01 7.9549532398903878e+01 7.8237369717489187e+01 0 0 0
3247 1 9.3655927556506285e-02 8.0615288079668119e+01 7.9438355775702092e+01 8.2207215262240766e+01 0 1 0
3241 2 -7.0725373518452900e-02 8.1748496379115267e+01 7.8582931985368859e+01 8.0058452995107970e+01 0 1 0
3242 1 6.6979189817063092e-02 8.1190765718357198e+01 7.9520702917809729e+01 7.9863279539806385e+01 0 1 0
3256 2 1.0516134907474675e-01 7.8363277933466662e+01 8.0918156586309223e+01 8.2304035978242993e+01 0 1 0
3257 3 -1.8375557723330901e-01 7.8802131922092343e+01 8.1987761852230364e+01 8.2053536467846826e+01 0 1 0
3251 2 -6.9990649877216843e-02 7.7853418216138991e+01 7.9567673145202306e+01 8.2598155217536473e+01 0 1 0
4762 1 1.0159815730184615e-01 8.1205379567447196e+01 8.1602629766139373e+01 8.4460240453791045e+01 0 0 0
3248 2 -1.0993726491339388e-01 7.8638108244156001e+01 7.8408943930282419e+01 8.1892555594670256e+01 0 1 0
3089 2 -6.9947293950482700e-02 7.7469141638727649e+01 7.8159323147315135e+01 7.8318758396422709e+01 0 0 0
3090 1 5.4043117249148974e-02 7.7679674520820086e+01 7.8927403110194263e+01 7.9061937244514596e+01 0 0 0
3246 2 -8.0859391555463608e-02 8.0195477576814440e+01 7.8429561588124358e+01 8.2122668287317751e+01 0 1 0
3074 2 -6.0349930450014098e-02 7.9409025574820816e+01 7.9547886801926964e+01 7.7326596914433154e+01 0 0 0
4764 1 1.2286852201089160e-01 8.1813605397927617e+01 8.2186452405918160e+01 8.1996177597856516e+01 0 0 0
3249 1 5.7683969198217201e-02 7.8401432463225376e+01 7.8447695631639235e+01 8.0817757468847901e+01 0 1 0
3253 2 -2.2666676081890708e-01 7.7895828801627246e+01 7.9374382758656154e+01 8.4120729207464606e+01 0 1 0
4760 2 -1.3396541023809547e-01 8.1815599843616539e+01 8.2504564542737938e+01 8.4212918910619578e+01 0 0 0
3243 2 -1.2649933127593466e-01 8.1010064237630132e+01 7.7619060156829789e+01 8.1073446169782272e+01 0 1 0
3258 2 1.2055934015038057e-01 8.0380601565133503e+01 7.7658171915297444e+01 8.3363562667820645e+01 0 1 0
3266 1 1.4620505800365446e-01 7.8920463527411272e+01 7.9544749445731810e+01 8.4401167577056626e+01 0 1 0
3238 2 -1.5245693134435581e-01 8.2077930455027513e+01 7.7760958074128396e+01 7.8746612369390448e+01 0 1 0
3067 1 1.0015577199451600e-01 7.7321203131656134e+01 8.2360688782069204e+01 7.9269721714405350e+01 0 0 0
3250 1 6.3542515313188275e-02 7.8248423902696956e+01 7.7454004335197595e+01 8.2187040110056330e+01 0 1 0
3076 2 -1.4471795330831438e-01 7.8469790774911743e+01 7.8282647677083688e+01 7.7151301795230836e+01 0 0 0
3255 1 9.6098577125529522e-02 7.7594866963353041e+01 7.8349007439026479e+01 8.4435196211203959e+01 0 1 0
3254 1 8.7398905615680617e-02 7.7244226902767508e+01 8.0150380288612581e+01 8.4594061696147605e+01 0 1 0
3122 2 1.2118321559775978e-01 7.7569452583301597e+01 7.6810389155394617e+01 7.8880352300853289e+01 0 0 0
3252 1 8.5261857662287194e-02 7.6776844239343461e+01 7.9578581152545553e+01 8.2296994543873893e+01 0 1 0
5529 3 -1.4534796568797295e-01 8.2200981851154310e+01 7.7831287642229469e+01 8.4888042177390147e+01 0 1 0
4763 2 -8.2081544491430930e-02 8.2538985492896956e+01 8.2273838135203789e+01 8.2796905825640664e+01 0 0 0
4788 3 -1.7048296399508028e-01 8.2430297990984712e+01 8.2405428309648045e+01 7.9320782114684647e+01 0 0 0
3066 2 -1.0345775123612828e-01 7.7840027059935792e+01 8.2920066242280527e+01 7.8487558239482098e+01 0 0 0
5528 2 1.1127153610304699e-01 8.2928428296262425e+01 7.6971845296395884e+01 8.5288599607349795e+01 0 1 0
4761 1 1.1293450034306310e-01 8.2532539098054968e+01 8.2576511312245671e+01 8.4997496676817946e+01 0 0 0
3240 1 1.0729376056820276e-01 8.1235340656154762e+01 7.7606065559234182e+01 7.8113834452324511e+01 0 1 0
3072 1 5.0947014729277915e-02 7.7506077663897244e+01 8.0748674394421073e+01 7.7574769991040284e+01 0 0 0
3071 2 -1.2139195497983807e-01 7.8508985669042787e+01 8.0819710391764175e+01 7.7190317057450144e+01 0 0 0
3078 1 1.1128318376110519e-01 7.8942306540507943e+01 7.7320731644664932e+01 7.7032223053867298e+01 0 0 0
3259 3 -2.1010308970187769e-01 8.0589402109263531e+01 7.7052081874114194e+01 8.4358318947744337e+01 0 1 0
3081 2 1.3670236144043604e-01 7.9916991212833395e+01 8.2637029249365099e+01 7.7006108232040731e+01 0 0 0
3244 1 6.5560839253661601e-02 8.0398176062313709e+01 7.6866748294254805e+01 8.0561399238351470e+01 0 1 0
3245 1 1.0805493584637960e-01 8.1868757848167434e+01 7.7098918006837437e+01 8.1523057319418072e+01 0 1 0
3239 1 1.2650672602913793e-01 8.2693189545006064e+01 7.8484174008027054e+01 7.8279203500170979e+01 0 1 0
3260 2 1.1431998716349136e-01 8.3007802762619775e+01 7.9051287628808680e+01 8.0677972882304132e+01 0 1 0
4789 2 1.1765337847750927e-01 8.3292362836052277e+01 8.0992776149337985e+01 8.2840249430482217e+01 0 0 0
4720 3 -1.7507182409338723e-01 8.3197452609475320e+01 8.1399602883825537e+01 7.7863638293383559e+01 0 0 0
4790 3 -1.4954478745253785e-01 8.3901956367895508e+01 7.9992961810656325e+01 8.2861090229324688e+01 0 0 0
3261 3 -1.3575612581423019e-01 8.4024725949016243e+01 7.9412055378303052e+01 8.1142645696456526e+01 0 1 0
5439 1 1.0608948527693007e-01 8.7285456839772309e+01 7.8561200043006039e+01 8.3699328052163537e+01 0 1 0
4719 2 1.0550213331082034e-01 8.4135309474155619e+01 8.1852896239913235e+01 7.7315452062078265e+01 0 0 0
5467 3 -1.5837780960840159e-01 8.7250638192650726e+01 7.9438276909403243e+01 8.0820113125847882e+01 0 1 0
5466 2 1.0271002421879701e-01 8.8124350759227781e+01 7.9133169736454448e+01 8.1546879629196440e+01 0 1 0
4771 1 1.4762292044554659e-01 8.5509823148128461e+01 8.1920648695310703e+01 8.1598856883620599e+01 0 0 0
4776 1 8.5511769665007356e-02 8.8054385806929545e+01 8.2039763389798281e+01 8.2074045794601133e+01 0 0 0
5426 3 -2.0591595678990010e-01 8.7064154949418253e+01 7.8837393311927727e+01 7.9101564943953264e+01 0 1 0
5438 2 -8.6371874084841260e-02 8.7660885774481955e+01 7.9332893501794018e+01 8.4360108939681552e+01 0 1 0
5464 2 1.0864441595449398e-01 8.6837816700000928e+01 8.0557719834449784e+01 8.4446293186664107e+01 0 1 0
5425 2 1.0967008156827054e-01 8.8077465467620286e+01 7.8260547843389034e+01 7.8878257933057824e+01 0 1 0
5465 3 -1.9371426362633298e-01 8.6173015854594965e+01 8.1542574596235184e+01 8.4495847849615259e+01 0 1 0
4692 1 9.0994261745242722e-02 8.6444622528733717e+01 8.1265105559428861e+01 7.8157648452189335e+01 0 0 0
4772 1 1.0821112851412606e-01 8.5849391875232868e+01 8.2589026669776260e+01 8.0050491100068541e+01 0 0 0
4770 2 -1.5539956821341014e-01 8.5578175374559180e+01 8.2861124754289790e+01 8.1019482155889918e+01 0 0 0
4777 1 7.2349792484704675e-02 8.8162370880129032e+01 8.2475805994993394e+01 8.0428152749626378e+01 0 0 0
4775 2 -1.1766620192467160e-01 8.8032032702031700e+01 8.2902829931030908e+01 8.1440548278460767e+01 0 0 0
3234 1 9.1246907564904320e-02 8.4619505226599358e+01 7.7504056680126411e+01 7.7974425485349471e+01 0 1 0
1738 3 -2.2643828448685532e-01 8.4915908986649143e+01 8.2093780788621785e+01 8.5712080216766708e+01 0 0 0
4689 1 6.2848429395612249e-02 8.8298676669868513e+01 8.2307655053309404e+01 7.7760098394506102e+01 0 0 0
4690 2 -1.0819712161266064e-01 8.6499434199943394e+01 8.1473015019858124e+01 7.7063610101941819e+01 0 0 0
5435 2 -1.3135467203827883e-01 8.9085623160380223e+01 7.9681148193629099e+01 8.3768684492735076e+01 0 1 0
5440 2 -1.1027717971418365e-01 8.7680342973452056e+01 7.8780647910687762e+01 8.5869832519278930e+01 0 1 0
4787 2 1.1978460347647973e-01 8.3186760036107614e+01 8.2897723320708437e+01 8.0076607389923439e+01 0 0 0
5433 2 -6.9623437636691057e-02 8.9218078228750016e+01 7.8755784074349307e+01 8.2452069229217543e+01 0 1 0
5437 1 6.6631175807697562e-02 8.9073252915724254e+01 8.0759328784884417e+01 8.3511076477747380e+01 0 1 0
5413 2 -7.8557117981050639e-02 8.9298537810842006e+01 7.7531155321498758e+01 7.8565713689943067e+01 0 1 0
5526 1 1.1539720512893037e-01 8.5533701958317167e+01 7.7079383749428942e+01 8.5171211946042732e+01 0 1 0
5434 1 5.7166465501933911e-02 8.9084982641613834e+01 7.7720502315035276e+01 8.2765881946442590e+01 0 1 0
5443 2 -5.7990525106671478e-02 8.7955050071457151e+01 7.7196336791727674e+01 8.5915737398501165e+01 0 1 0
5444 1 3.2588708590778163e-02 8.7364712816109517e+01 7.6716500923652504e+01 8.5053623546647344e+01 0 1 0
5445 2 -1.2197162283607732e-01 8.9480576199954754e+01 7.6816410545625814e+01 8.5831460522767259e+01 0 1 0
4688 2 -1.4405162761122370e-01 8.7838889989884066e+01 8.2258362318985036e+01 7.6762324279729171e+01 0 0 0
5407 1 6.6700617040956700e-02 8.7281922437497144e+01 7.7159188094967533e+01 7.6764079042079729e+01 0 1 0
4693 2 -8.7895214007276457e-02 8.5296478145412522e+01 8.2392505518689077e+01 7.6637773036529296e+01 0 0 0
4691 1 6.3220949676681876e-02 8.6443429444342698e+01 8.0491654135936926e+01 7.6658775710105303e+01 0 0 0
403 2 -1.2979616199732888e-01 9.5593406828027668e+01 7.8376795401286515e+01 8.5762917607427909e+01 0 0 0
5417 1 1.1375862961985062e-01 9.1085788187245839e+01 7.6918872954422866e+01 7.9621559858116925e+01 0 1 0
405 1 1.0099394385915694e-01 9.4781728433118104e+01 7.7667942427008768e+01 8.5830200283172360e+01 0 0 0
411 2 -5.4221372884382876e-02 9.5690263942688063e+01 8.0596382939899641e+01 8.2424474105505013e+01 0 0 0
408 2 -1.3288496686554888e-01 9.5708954117399813e+01 7.9334496013095702e+01 8.3405101857378867e+01 0 0 0
1653 1 9.6106057199768197e-02 9.0820328147071208e+01 8.3006664857956324e+01 7.7154722128966384e+01 0 0 1
5412 1 1.1803931319630727e-01 8.9944338943471863e+01 7.9234559150218459e+01 7.7260231470560043e+01 0 1 0
410 1 1.0701704324836134e-01 9.5072069715744277e+01 7.8557190959827494e+01 8.3080994557672398e+01 0 0 0
406 2 -8.2690263431863059e-02 9.5274650869697211e+01 7.9618862470566171e+01 8.4858585271545834e+01 0 0 0
5410 2 -1.4782949711135646e-01 9.0040952714721371e+01 7.8140655022002534e+01 7.7313662919657929e+01 0 1 0
5436 1 1.0153055715805603e-01 8.9914597480029983e+01 7.9475271245181546e+01 8.4426671658364612e+01 0 1 0
5419 1 9.3319211753219500e-02 9.0024346670658318e+01 7.9736746740877805e+01 7.9949115455772926e+01 0 1 0
5415 2 -1.2963419449302960e-01 9.0169445508219866e+01 7.7462813230466452e+01 7.9870087922313004e+01 0 1 0
419 3 -2.2759534382542781e-01 9.2632010587927738e+01 7.9747084046231109e+01 8.4946633358777106e+01 0 0 0
4216 3 -2.2089022731081889e-01 9.4627264469860165e+01 7.7990688268455855e+01 8.0106831427331400e+01 0 1 1
5418 2 -7.1111979909280032e-02 9.0667952317484804e+01 7.8909292339923852e+01 8.0267186804982927e+01 0 1 0
5422 1 7.7535250374331177e-02 9.1084681043186905e+01 7.9981527124844973e+01 8.2072313029948248e+01 0 1 0
5420 2 -1.2743928229569534e-01 9.0686586300599203e+01 7.8975258281447609e+01 8.1873243801635894e+01 0 1 0
5423 2 1.0224384767058534e-01 9.2092810599310255e+01 7.9093196001006405e+01 7.9814237770440727e+01 0 1 0
5424 3 -1.4874257877016225e-01 9.3201553237123335e+01 7.9218377417471984e+01 7.9472146756354121e+01 0 1 0
418 2 1.2299506666147028e-01 9.3809943917018344e+01 7.9705840519357082e+01 8.4907794760144228e+01 0 0 0
5421 1 7.3175662843471212e-02 9.1315608775069649e+01 7.8212362188254417e+01 8.2252812066025243e+01 0 1 0
413 2 -2.5465784378555928e-01 9.4257775647204852e+01 8.1171786876685275e+01 8.2146306929274715e+01 0 0 0
426 1 1.3823921966773173e-01 9.4318823791294022e+01 8.2071459273437753e+01 8.1551748939154308e+01 0 0 0
414 1 1.3303986761535175e-01 9.3572664208482763e+01 8.0471105544259174e+01 8.1566558011502536e+01 0 0 0
415 1 1.4378988820226513e-01 9.3741765528030982e+01 8.1396047645564266e+01 8.3045793491445039e+01 0 0 0
4215 2 1.4633875936784224e-01 9.5462158655417952e+01 7.7771687421031729e+01 7.9306546831387791e+01 0 1 1
4782 1 7.8350507806495273e-02 9.0154137309186495e+01 8.2801969459109060e+01 8.3606578838943463e+01 0 0 0
5411 1 1.3582440424015030e-01 9.1086664509555249e+01 7.7837648640377978e+01 7.7210681977287464e+01 0 1 0
1732 3 -2.0664844312708006e-01 9.1827033843370799e+01 8.1151397914449916e+01 8.5861286496475969e+01 0 0 0
1662 3 -1.3342715717675208e-01 9.3007928976229806e+01 8.0799196667123738e+01 7.6780291447306482e+01 0 0 1
5446 1 6.6646852589622926e-02 8.9911833011455784e+01 7.7195823547723563e+01 8.4906803416924120e+01 0 1 0
407 1 1.0256421806664205e-01 9.5822783971804895e+01 8.0545764709183373e+01 8.5191561368230950e+01 0 0 0
5416 1 8.5616442969389056e-02 8.9697380728451705e+01 7.6937662200817513e+01 8.0700519615235407e+01 0 1 0
4784 3 -2.0281339668415538e-01 9.1308028329597221e+01 8.2998393548897283e+01 8.0450176939102619e+01 0 0 0
1661 2 1.4018329087950238e-01 9.2931338873785563e+01 8.1934881106970877e+01 7.6568903970141733e+01 0 0 1
3068 1 5.2816304108659159e-02 7.7061968455438048e+01 8.3126446996289459e+01 7.7658012663998264e+01 0 0 0
1489 3 -1.9493536676949563e-01 7.8018626178345514e+01 8.5949678969322278e+01 8.6077286855753187e+01 0 0 0
4792 3 -1.9223672787077944e-01 7.8582421950990337e+01 8.3227169803132796e+01 8.3377068640162804e+01 0 0 0
1472 2 -6.9066197979774979e-02 7.9584442688875811e+01 8.9483492280592742e+01 8.1014754584761391e+01 0 0 0
1518 3 -1.8794687700401447e-01 7.8287564740514966e+01 8.9370131175525188e+01 7.7031124165794111e+01 0 0 0
3049 3 -2.1410121421180400e-01 7.9821549886274013e+01 8.8265366447733228e+01 7.6895586641690073e+01 0 0 0
4791 2 1.3476307310101948e-01 7.9667170422987411e+01 8.3502483568616157e+01 8.3749845805911889e+01 0 0 0
1484 2 1.0989153239626982e-01 8.0395673937387684e+01 8.9163190532398943e+01 8.2228016879772383e+01 0 0 0
3062 1 1.1556329877594054e-01 7.8508983098355060e+01 8.4950540407847001e+01 7.6937871526411513e+01 0 0 0
1462 2 -7.0455149101952982e-02 7.7104859644950295e+01 8.7685139653991655e+01 8.4323960874922264e+01 0 0 0
4747 1 1.1335676751169431e-01 7.9892042617778785e+01 8.4155577075028049e+01 8.6119237883194174e+01 0 0 0
1488 2 1.2723216867600257e-01 7.7619845777423365e+01 8.6727438413932276e+01 8.5290934422133006e+01 0 0 0
4758 2 -7.7303575464042346e-02 8.1008015186938152e+01 8.3860315180435379e+01 8.4237470518058913e+01 0 0 0
1467 2 -5.4189247151590104e-02 7.7472807241654294e+01 8.8150141230515658e+01 8.1805317304024129e+01 0 0 0
1466 1 1.1374447378604684e-01 7.7709587008397079e+01 8.6203942525917427e+01 8.2848087004208125e+01 0 0 0
4685 3 -2.1268317129347411e-01 8.1157015575154603e+01 8.8639071192763296e+01 8.4987836745140612e+01 0 0 0
3065 1 1.1842472206326532e-01 7.7327811020217183e+01 8.4636238358687223e+01 7.9834827545888075e+01 0 0 0
4744 1 1.0819129373435614e-01 8.1451013740450904e+01 8.6185287706907744e+01 8.5144588549970365e+01 0 0 0
4759 1 8.5019929985396842e-02 8.1495204437186430e+01 8.4713523252737374e+01 8.3772974184880042e+01 0 0 0
1469 2 -1.4012946125636430e-01 7.8573170174205643e+01 8.8340912505498025e+01 8.0674655860196040e+01 0 0 0
3084 3 -1.6327377737010412e-01 8.0514738107483367e+01 8.4522344472656300e+01 8.0225998874458327e+01 0 0 0
3083 2 1.2634404239695970e-01 7.9440987772673637e+01 8.4461564998865157e+01 7.9715675022065597e+01 0 0 0
3063 1 1.2250414969550913e-01 7.8446289736917862e+01 8.6314179597445161e+01 7.8091160804542255e+01 0 0 0
1464 2 -1.6305809690578926e-01 7.7946244503898512e+01 8.7230118267207914e+01 8.3020655616854469e+01 0 0 0
4757 3 -2.1217963728499267e-01 8.1369749693572047e+01 8.5897013090454266e+01 8.1383267755745891e+01 0 0 0
4756 2 1.1697557193205042e-01 8.2330282938833477e+01 8.6216473422276721e+01 8.0774634988390360e+01 0 0 0
3061 2 -1.4348146999618833e-01 7.7976748408457610e+01 8.5391933520376895e+01 7.7805357901739541e+01 0 0 0
3064 2 -8.1526253399879040e-02 7.8078849771737055e+01 8.4391127070979579e+01 7.9080930650915761e+01 0 0 0
1470 1 1.1571160938615627e-01 7.9118958170678155e+01 8.7437149449344901e+01 8.0445749490413903e+01 0 0 0
1465 1 1.4383682041504506e-01 7.9005825437424576e+01 8.7298242326324868e+01 8.3203411997454083e+01 0 0 0
4745 2 -1.3873090794010115e-01 8.0929921208241112e+01 8.4193307623243683e+01 8.5838029994807442e+01 0 0 0
4743 2 -8.0721224936604830e-02 8.1588138402732838e+01 8.5610747304452389e+01 8.6038441415505915e+01 0 0 0
1471 1 1.0261393439660892e-01 7.8085053896417747e+01 8.8611149690467599e+01 7.9724883420459136e+01 0 0 0
1485 3 -1.9315059697863468e-01 8.1013937361855298e+01 8.8882444150038694e+01 8.3207785120190564e+01 0 0 0
1461 1 1.0125405942929247e-01 7.8489215081908213e+01 8.9062296281251136e+01 8.5270262930124105e+01 0 0 0
4711 1 1.0046530257712530e-01 8.2379684661320297e+01 8.7458793469964405e+01 7.8371371312082047e+01 0 0 0
1459 2 -1.2220269408179422e-01 7.7547809191743056e+01 8.9179257541755945e+01 8.4653809332310146e+01 0 0 0
4712 1 1.2254412057041981e-01 8.2633955724679481e+01 8.5762999274518833e+01 7.8299831363131872e+01 0 0 0
1468 1 4.8861481525448690e-02 7.7108814932381520e+01 8.9104274770376179e+01 8.2173125578015572e+01 0 0 0
4767 1 1.1315602624193140e-01 8.4428075438790046e+01 8.3213692025266411e+01 8.3212930649040686e+01 0 0 0
4781 1 9.8703817943504690e-02 8.8672567223800897e+01 8.3545837778046064e+01 8.4030110853054254e+01 0 0 0
4765 2 -1.2682142759258905e-01 8.3648528999796284e+01 8.3403699566610740e+01 8.2547490028103354e+01 0 0 0
4768 2 -5.1880247919397174e-02 8.4164709816424235e+01 8.3533387535041072e+01 8.1055105413367173e+01 0 0 0
4773 2 -7.0430933449040584e-02 8.6742240595023006e+01 8.3808377183059051e+01 8.1588702608768614e+01 0 0 0
4694 1 8.9082245679324656e-02 8.5560978903063045e+01 8.3348200659956092e+01 7.6980139351108463e+01 0 0 0
4766 1 6.4883439990339353e-02 8.3174956413541324e+01 8.4367575763152942e+01 8.2849313846425247e+01 0 0 0
4727 1 1.2217846979640351e-01 8.3305329566522801e+01 8.8744872362742214e+01 8.0238821475069415e+01 0 0 0
4741 1 9.7164866960308197e-02 8.3386189020079968e+01 8.4237703695123884e+01 8.5712963191152312e+01 0 0 0
4729 1 1.1329589171841115e-01 8.3319632609693173e+01 8.7492574149529617e+01 8.2553201037977431e+01 0 0 0
4710 2 -1.4300355422572483e-01 8.3121515750143800e+01 8.6693237820605759e+01 7.8546957008961044e+01 0 0 0
981 2 -2.4267174200183933e-01 8.8235945128724779e+01 8.9134653756952972e+01 8.0054567226620961e+01 0 0 0
4774 1 6.9295776880979765e-02 8.6589086248786018e+01 8.4117061126131688e+01 8.2621691108710934e+01 0 0 0
4723 2 -7.8308042215205376e-02 8.3520708903248121e+01 8.6618924947636515e+01 8.0059059147739717e+01 0 0 0
4732 1 1.0309232538529736e-01 8.6111966586630146e+01 8.8349273789078126e+01 8.2320548588178866e+01 0 0 0
4736 1 5.4142627693222284e-02 8.3689910750867000e+01 8.6070922341011567e+01 8.4059807024748238e+01 0 0 0
4725 2 -1.3483132444491799e-01 8.4021374954016750e+01 8.8004125529172057e+01 8.0588824119166375e+01 0 0 0
4753 3 -1.8079854651569799e-01 8.7901178783262310e+01 8.7435369123384788e+01 8.4982420848439716e+01 0 0 0
4769 1 5.4247632033826154e-02 8.4340063599665470e+01 8.4573226986448887e+01 8.0855172024839987e+01 0 0 0
4726 1 9.4399995769785305e-02 8.4986117618605689e+01 8.8199762343779256e+01 8.0115519588278389e+01 0 0 0
4728 2 -9.2590946382778219e-02 8.4094947228548349e+01 8.8092104202815790e+01 8.2142102608697769e+01 0 0 0
4709 1 8.1523758550928527e-02 8.4724224290823116e+01 8.8006036588487802e+01 7.7854094503287939e+01 0 0 0
4724 1 8.4829109798801317e-02 8.4267637791522276e+01 8.5819571391342691e+01 8.0071183366314429e+01 0 0 0
4708 2 -7.9000704141050967e-02 8.4381232576536433e+01 8.6988171648094180e+01 7.7634633643334809e+01 0 0 0
4713 2 1.2050378148747012e-01 8.5407290748882843e+01 8.6053638839347002e+01 7.8027942249617325e+01 0 0 0
4714 3 -2.4722144092757434e-01 8.6238341250606396e+01 8.5263144697541065e+01 7.8339470500686261e+01 0 0 0
4734 1 7.0878556030200990e-02 8.4884889672345778e+01 8.8398054676590050e+01 8.4644512023783960e+01 0 0 0
4735 2 -1.0735144621175206e-01 8.4595396694484734e+01 8.6172679886271197e+01 8.4659261170815512e+01 0 0 0
4785 2 1.1835194107039120e-01 8.6856122055885791e+01 8.4972022652648846e+01 8.0709637958351706e+01 0 0 0
4733 2 -7.0100395694002282e-02 8.5372593888945104e+01 8.7533251791015971e+01 8.4215073149201970e+01 0 0 0
4752 2 1.2716541079328017e-01 8.6758210130684262e+01 8.7493904912394569e+01 8.4715250907335445e+01 0 0 0
4786 3 -2.3769538391023912e-01 8.6941210538113566e+01 8.5902723012050743e+01 7.9992085834995521e+01 0 0 0
4731 1 9.7441223107936972e-02 8.5841089745505371e+01 8.6747246421495518e+01 8.2140607818628723e+01 0 0 0
4730 2 -1.3943737553985439e-01 8.5483636625282060e+01 8.7600118182801481e+01 8.2638368193397753e+01 0 0 0
4737 1 8.2784306866613630e-02 8.5226348185938960e+01 8.5315640335575594e+01 8.4378892577841100e+01 0 0 0
982 1 1.3208211853306401e-01 8.7507343173241168e+01 8.9083957811458433e+01 7.9247438550427319e+01 0 0 0
994 1 1.1638489991179160e-01 8.8210107875162038e+01 8.8217493850978371e+01 8.0729239268617903e+01 0 0 0
4738 2 -6.7262127440290614e-02 8.4085301245042800e+01 8.6216119918576524e+01 8.6075241534674504e+01 0 0 0
4827 3 -2.1404482643261932e-01 8.8807088752537183e+01 8.7017049754515668e+01 8.3389971495643366e+01 0 0 0
4704 1 7.6157665342732384e-02 8.4149370049960169e+01 8.4555913304396412e+01 7.6720478732085169e+01 0 0 0
4779 1 9.2202086400234654e-02 8.8996065483069145e+01 8.4859368543100189e+01 8.1578831570551401e+01 0 0 0
983 1 1.1519785584130937e-01 8.9208881596034374e+01 8.9173803777735174e+01 7.9567539201738555e+01 0 0 0
1657 1 8.4162779307689950e-02 8.9242391516794299e+01 8.4774444665405795e+01 7.7660859836755165e+01 0 0 1
4778 2 -8.0348547939385784e-02 8.9238788943633651e+01 8.3865657776307913e+01 8.1890305994023919e+01 0 0 0
4826 2 1.2630128488123638e-01 8.9465415130421746e+01 8.6085784950153879e+01 8.3647150501238869e+01 0 0 0
4739 1 6.7643503010633224e-02 8.3597315970376371e+01 8.7186216142382648e+01 8.6247610461326317e+01 0 0 0
4504 3 -1.9261278767321152e-01 9.5945657193890867e+01 8.7296786999685153e+01 8.1204117060034420e+01 0 0 0
1703 3 -2.1038687773580322e-01 8.9780311544504954e+01 8.9040047856021431e+01 7.6746461169572427e+01 0 0 1
1651 2 -1.1180198598905382e-01 9.1371967676595119e+01 8.3846479392558948e+01 7.6666087986975072e+01 0 0 1
1658 1 7.9065114804623346e-02 8.9596382272902360e+01 8.6335240642922713e+01 7.8445873502138426e+01 0 0 1
4799 1 1.0011352551951032e-01 9.3815792705411056e+01 8.5533620961789069e+01 8.4015254878946806e+01 0 0 0
4793 2 -7.8588777310114502e-02 9.0312486979425671e+01 8.4917596384895276e+01 8.4033626360454633e+01 0 0 0
1659 2 1.1282704720553804e-01 9.1855469640521122e+01 8.4766986460544970e+01 7.8843675969706126e+01 0 0 1
1655 1 5.7903811580520020e-02 9.1945379629124147e+01 8.6041663502283200e+01 7.7176331077233769e+01 0 0 1
4780 2 -1.2485345680362452e-01 8.9571263155077901e+01 8.3693241033809073e+01 8.3453386564837970e+01 0 0 0
4805 2 -1.2309928990202187e-01 9.2637040241635432e+01 8.9007091488456496e+01 8.3025662829121814e+01 0 0 0
1650 1 1.0714147850669020e-01 9.3649115445766355e+01 8.3869765002417466e+01 7.6955915015126081e+01 0 0 1
4816 1 1.1540555149694995e-01 9.3378916081910276e+01 8.7995635823954771e+01 7.8073604066591614e+01 0 0 0
4824 2 1.1684802421774593e-01 9.2687130691345828e+01 8.4952514752037288e+01 8.5703183798325085e+01 0 0 0
4783 2 1.0420715215163341e-01 9.0386845634215348e+01 8.3363605543353856e+01 8.1078449926255615e+01 0 0 0
4812 1 1.0269253609312119e-01 9.0871163727304847e+01 8.9292676199009364e+01 8.1128661474898237e+01 0 0 0
4794 1 1.1228304856085525e-01 9.0374335839584177e+01 8.4785941702432368e+01 8.5115974783664328e+01 0 0 0
4802 1 1.1612827709648527e-01 9.2768690839958055e+01 8.7183227590699161e+01 8.5883919928422131e+01 0 0 0
4815 2 -2.1241783609709808e-01 9.2455147401118694e+01 8.8409502807381315e+01 7.8446093192645122e+01 0 0 0
4809 1 7.2228220325604178e-02 9.1447299299522598e+01 8.7273612807268265e+01 8.2590770285010663e+01 0 0 0
4804 1 7.9908909287445554e-02 9.4393988380665490e+01 8.7759879353008643e+01 8.3857939826039029e+01 0 0 0
1656 2 -1.2570777777425995e-01 8.9819195869294262e+01 8.5646499550088137e+01 7.7575407103981050e+01 0 0 1
4811 1 6.1458360886962021e-02 9.0928153260984942e+01 8.7684908835500522e+01 8.0347361571426731e+01 0 0 0
4821 3 -1.8215138097681857e-01 9.4333533530992696e+01 8.6413979533394908e+01 8.1588389221735582e+01 0 0 0
4796 1 1.0845396867196715e-01 9.2061528463089331e+01 8.3942619751456633e+01 8.3242915326137663e+01 0 0 0
4801 1 1.0371576480720388e-01 9.1596783901234105e+01 8.7565969347199157e+01 8.4660578367577259e+01 0 0 0
1660 3 -1.8285019810428710e-01 9.2280952158068274e+01 8.4471949146411490e+01 7.9900735514992377e+01 0 0 1
4822 2 1.0056579393702400e-01 9.3808554725006189e+01 8.9250253731608311e+01 8.5162697197800199e+01 0 0 0
4810 2 -1.1615225118082330e-01 9.1543833965452905e+01 8.8482449796216059e+01 8.0805744471360825e+01 0 0 0
4814 1 1.0973058203353689e-01 9.3712232575316889e+01 8.8784978643443580e+01 8.0239291679772663e+01 0 0 0
4803 2 -6.9565312665553408e-02 9.3462304963058045e+01 8.8270350092369881e+01 8.4147147600096844e+01 0 0 0
4797 1 1.0265072839388285e-01 9.1636153016422298e+01 8.5506303080683836e+01 8.2513977393993358e+01 0 0 0
4828 1 1.2404148323607715e-01 9.2082277886868042e+01 8.9187711091733163e+01 7.7741986943268131e+01 0 0 0
1654 2 -7.4269944559996512e-02 9.1325859236794173e+01 8.5178361635789926e+01 7.7528293828880336e+01 0 0 1
4820 2 1.0462664522519624e-01 9.3365352355728987e+01 8.7059971626553789e+01 8.1815106882582768e+01 0 0 0
4800 2 -1.4637045057520012e-01 9.2579334457727242e+01 8.7184314554937515e+01 8.4808636684651745e+01 0 0 0
4798 2 -7.8974356767287451e-02 9.2807351457707469e+01 8.5675259093150288e+01 8.4376375926015740e+01 0 0 0
4808 2 -7.1165893829078897e-02 9.2147520384549793e+01 8.7874082519100057e+01 8.2086608295863087e+01 0 0 0
4813 2 -5.4324784938555221e-02 9.2688875325215633e+01 8.8989023924220490e+01 7.9842825483380210e+01 0 0 0
4817 1 8.1926047542097855e-02 9.1645202350777296e+01 8.7573002395337397e+01 7.8431901043691113e+01 0 0 0
4795 2 -1.3141920906141982e-01 9.1692709104283111e+01 8.4965774497286901e+01 8.3414915922355050e+01 0 0 0
2673 2 -7.1223713063948618e-02 7.8395395949965845e+01 8.1199689268830056e+01 8.9574404676674078e+01 0 0 0
2674 1 7.2504867062595346e-02 7.8867563342427914e+01 8.0885118247766400e+01 9.0462061812441718e+01 0 0 0
3827 3 -1.6722093276103833e-01 8.1588356367190570e+01 8.0210249925412313e+01 9.4546398900985025e+01 0 0 0
2692 2 1.2428339544700236e-01 7.8382836965164287e+01 8.0209689419133610e+01 8.8441823453398115e+01 0 0 0
1979 3 -1.5005515280693377e-01 7.9850917707636896e+01 7.8279477095011060e+01 8.7786813091515313e+01 1 1 0
1978 2 1.1413413694900787e-01 7.9319158655407634e+01 7.7363067968914024e+01 8.8275053059353638e+01 1 1 0
1740 3 -1.8211378142685844e-01 8.2267358835743750e+01 8.1043047263655808e+01 8.8002963987865655e+01 0 0 0
2693 3 -2.0745511325450233e-01 7.8348003515694032e+01 7.9454272185982191e+01 8.7535193529440235e+01 0 0 0
2687 1 1.2290672109376263e-01 7.8438786930461376e+01 7.9068044920602816e+01 9.4021014998949539e+01 0 0 0
2685 2 -2.4409020912221491e-01 7.8042184324790270e+01 7.9724891970083789e+01 9.3231998645982884e+01 0 0 0
2698 1 9.3276244662967495e-02 7.8526394525600068e+01 7.9375009961494953e+01 9.2325127677784110e+01 0 0 0
2686 1 1.4434931443601362e-01 7.8504424191215250e+01 8.0690083458643088e+01 9.3391290719991531e+01 0 0 0
2695 3 -1.9847462955097217e-01 8.2555351353246323e+01 8.2529525733471303e+01 8.9016156239882207e+01 0 0 0
2694 2 1.1957008723866035e-01 8.1491850592498736e+01 8.2698239891756970e+01 8.9492999605213782e+01 0 0 0
2672 1 1.0334107989995450e-01 7.9567281665662804e+01 8.2179850199879468e+01 8.8058070920873931e+01 0 0 0
2670 2 -1.2352227627321345e-01 7.9081886663414338e+01 8.2457892886355609e+01 8.9008238920864827e+01 0 0 0
2669 1 8.1132782184103469e-02 8.0268248283372515e+01 8.2262552846147400e+01 9.1026685893506681e+01 0 0 0
2675 2 -1.3224001452241776e-01 7.6927177170052914e+01 8.1653236136815821e+01 8.9833147897246519e+01 0 0 0
2676 1 7.3034881859621023e-02 7.6808721332306447e+01 8.2628241298437075e+01 9.0339574363431524e+01 0 0 0
3826 2 9.9533790375978343e-02 8.1206891433564095e+01 8.0495863357633667e+01 9.5613404201999913e+01 0 0 0
1971 1 6.0099444083557128e-02 7.7206173286229941e+01 7.7315360695313430e+01 9.0153208043943749e+01 1 1 0
1972 1 9.1873153255100051e-02 7.8741193490180677e+01 7.6966482914027296e+01 9.1033068807896086e+01 1 1 0
2679 1 4.5245799933886062e-02 7.7041564441031838e+01 7.9639343809805453e+01 9.0835188242189730e+01 0 0 0
454 3 -2.8651040812263229e-01 7.9920289060667145e+01 7.6971075261507409e+01 9.4136505183587190e+01 0 0 0
1970 2 -1.1798701793673841e-01 7.8010802095159590e+01 7.6557646102295777e+01 9.0344484871991824e+01 1 1 0
2668 2 -7.2056398577076866e-02 8.0154633782737164e+01 8.2908096617569882e+01 9.0086280800358196e+01 0 0 0
2681 1 9.2186995130160529e-02 7.6707487212478682e+01 8.1897964945023105e+01 9.2378797604999193e+01 0 0 0
3820 1 8.1060672180986920e-02 7.9334895945987569e+01 7.8843917238488530e+01 9.5957576788167543e+01 0 0 0
5441 1 5.1336052396187153e-02 8.8417588145190223e+01 7.9299057123642271e+01 8.6514424990540931e+01 0 1 0
1739 2 1.6178089491227268e-01 8.3255769165864777e+01 8.0428489861128583e+01 8.7799028964632086e+01 0 0 0
565 3 -1.5709254255355659e-01 8.3254702277479865e+01 8.0939720816694546e+01 9.4078337340406748e+01 0 0 0
1705 1 1.3145516948110653e-01 8.4743945413229909e+01 7.9866854165681616e+01 8.6415651263324222e+01 0 0 0
1707 1 9.0692800834185183e-02 8.4292580246691173e+01 7.8539791775581975e+01 8.7516637861922320e+01 0 0 0
545 2 -1.2101417384334776e-01 8.8693919172319255e+01 8.2130065243757798e+01 9.5310918962902903e+01 0 0 0
1706 2 -1.7594250640007505e-01 8.4468532929106203e+01 7.9644368605804274e+01 8.7451958549470305e+01 0 0 0