# LAMMPS data file written by Ovito Basic 3.0.0-dev791
747 atoms
5 atom types
0.0 16.9909992218 xlo xhi
0.0 16.9909992218 ylo yhi
0.0 130.0 zlo zhi

Atoms  # charge

1 1 0.0 6.406459808 0.134229988 35.584541321
2 1 0.0 6.406459808 0.134229988 52.575538635
3 1 0.0 6.261350155 15.277290344 36.681308746
4 1 0.0 6.261350155 15.277290344 53.672309875
5 1 0.0 6.90004015 1.45272994 35.090950012
6 1 0.0 6.90004015 1.45272994 52.081951141
7 1 0.0 0.134229988 10.584540367 31.406461716
8 1 0.0 0.134229988 10.584540367 48.397460938
9 1 0.0 15.277290344 10.729649544 30.309692383
10 1 0.0 15.277290344 10.729649544 47.300689697
11 1 0.0 1.45272994 10.090950012 31.90004158
12 1 0.0 1.45272994 10.090950012 48.891040802
13 1 0.0 10.584540367 16.856769562 35.584541321
14 1 0.0 10.584540367 16.856769562 52.575538635
15 1 0.0 10.729649544 1.71370995 36.681308746
16 1 0.0 10.729649544 1.71370995 53.672309875
17 1 0.0 10.090950012 15.538269997 35.090950012
18 1 0.0 10.090950012 15.538269997 52.081951141
19 1 0.0 16.856769562 6.406459808 31.406461716
20 1 0.0 16.856769562 6.406459808 48.397460938
21 1 0.0 1.71370995 6.261350155 30.309692383
22 1 0.0 1.71370995 6.261350155 47.300689697
23 1 0.0 15.538269997 6.90004015 31.90004158
24 1 0.0 15.538269997 6.90004015 48.891040802
25 1 0.0 6.406459808 16.856769562 31.406461716
26 1 0.0 6.406459808 16.856769562 48.397460938
27 1 0.0 6.261350155 1.71370995 30.309692383
28 1 0.0 6.261350155 1.71370995 47.300689697
29 1 0.0 6.90004015 15.538269997 31.90004158
30 1 0.0 6.90004015 15.538269997 48.891040802
31 1 0.0 16.856769562 10.584540367 35.584541321
32 1 0.0 16.856769562 10.584540367 52.575538635
33 1 0.0 1.71370995 10.729649544 36.681308746
34 1 0.0 1.71370995 10.729649544 53.672309875
35 1 0.0 15.538269997 10.090950012 35.090950012
36 1 0.0 15.538269997 10.090950012 52.081951141
37 1 0.0 10.584540367 0.134229988 31.406461716
38 1 0.0 10.584540367 0.134229988 48.397460938
39 1 0.0 10.729649544 15.277290344 30.309692383
40 1 0.0 10.729649544 15.277290344 47.300689697
41 1 0.0 10.090950012 1.45272994 31.90004158
42 1 0.0 10.090950012 1.45272994 48.891040802
43 1 0.0 0.134229988 6.406459808 35.584541321
44 1 0.0 0.134229988 6.406459808 52.575538635
45 1 0.0 15.277290344 6.261350155 36.681308746
46 1 0.0 15.277290344 6.261350155 53.672309875
47 1 0.0 1.45272994 6.90004015 35.090950012
48 1 0.0 1.45272994 6.90004015 52.081951141
49 1 0.0 10.584540367 6.406459808 25.13422966
50 1 0.0 10.584540367 6.406459808 42.125228882
51 1 0.0 11.6813097 6.261350155 40.277290344
52 1 0.0 11.6813097 6.261350155 57.268291473
53 1 0.0 10.090950012 6.90004015 26.452730179
54 1 0.0 10.090950012 6.90004015 43.443729401
55 1 0.0 6.406459808 6.406459808 41.856769562
56 1 0.0 6.406459808 6.406459808 58.847770691
57 1 0.0 6.261350155 5.309689999 26.713710785
58 1 0.0 6.261350155 5.309689999 43.704708099
59 1 0.0 6.90004015 6.90004015 40.538269043
60 1 0.0 6.90004015 6.90004015 57.529270172
61 1 0.0 6.406459808 10.584540367 25.13422966
62 1 0.0 6.406459808 10.584540367 42.125228882
63 1 0.0 5.309689999 10.729649544 40.277290344
64 1 0.0 5.309689999 10.729649544 57.268291473
65 1 0.0 6.90004015 10.090950012 26.452730179
66 1 0.0 6.90004015 10.090950012 43.443729401
67 1 0.0 10.584540367 10.584540367 41.856769562
68 1 0.0 10.584540367 10.584540367 58.847770691
69 1 0.0 10.729649544 11.6813097 26.713710785
70 1 0.0 10.729649544 11.6813097 43.704708099
71 1 0.0 10.090950012 10.090950012 40.538269043
72 1 0.0 10.090950012 10.090950012 57.529270172
73 1 0.0 11.6813097 10.729649544 26.713710785
74 1 0.0 11.6813097 10.729649544 43.704708099
75 1 0.0 10.729649544 5.309689999 40.277290344
76 1 0.0 10.729649544 5.309689999 57.268291473
77 1 0.0 5.309689999 6.261350155 26.713710785
78 1 0.0 5.309689999 6.261350155 43.704708099
79 1 0.0 6.261350155 11.6813097 40.277290344
80 1 0.0 6.261350155 11.6813097 57.268291473
81 1 0.0 15.277290344 11.6813097 31.261350632
82 1 0.0 15.277290344 11.6813097 48.252349854
83 1 0.0 15.277290344 5.309689999 35.72964859
84 1 0.0 15.277290344 5.309689999 52.720649719
85 1 0.0 5.309689999 1.71370995 31.261350632
86 1 0.0 5.309689999 1.71370995 48.252349854
87 1 0.0 1.71370995 11.6813097 35.72964859
88 1 0.0 1.71370995 11.6813097 52.720649719
89 1 0.0 11.6813097 15.277290344 31.261350632
90 1 0.0 11.6813097 15.277290344 48.252349854
91 1 0.0 1.71370995 5.309689999 31.261350632
92 1 0.0 1.71370995 5.309689999 48.252349854
93 1 0.0 5.309689999 15.277290344 35.72964859
94 1 0.0 5.309689999 15.277290344 52.720649719
95 1 0.0 11.6813097 1.71370995 35.72964859
96 1 0.0 11.6813097 1.71370995 52.720649719
97 1 0.0 14.901960373 8.629730225 27.089040756
98 1 0.0 14.901960373 8.629730225 44.080039978
99 1 0.0 14.756850243 6.78178978 28.185810089
100 1 0.0 14.756850243 6.78178978 45.176811218
101 1 0.0 15.395540237 9.94822979 26.595449448
102 1 0.0 15.395540237 9.94822979 43.586448669
103 1 0.0 8.629730225 2.089040041 39.901958466
104 1 0.0 8.629730225 2.089040041 56.892948151
105 1 0.0 6.78178978 2.234149933 38.80519104
106 1 0.0 6.78178978 2.234149933 55.796188354
107 1 0.0 9.94822979 1.595450044 40.39553833
108 1 0.0 9.94822979 1.595450044 57.386539459
109 1 0.0 2.089040041 8.361269951 27.089040756
110 1 0.0 2.089040041 8.361269951 44.080039978
111 1 0.0 2.234149933 10.209210396 28.185810089
112 1 0.0 2.234149933 10.209210396 45.176811218
113 1 0.0 1.595450044 7.042770386 26.595449448
114 1 0.0 1.595450044 7.042770386 43.586448669
115 1 0.0 8.361269951 14.901960373 39.901958466
116 1 0.0 8.361269951 14.901960373 56.892948151
117 1 0.0 10.209210396 14.756850243 38.80519104
118 1 0.0 10.209210396 14.756850243 55.796188354
119 1 0.0 7.042770386 15.395540237 40.39553833
120 1 0.0 7.042770386 15.395540237 57.386539459
121 1 0.0 14.901960373 8.361269951 39.901958466
122 1 0.0 14.901960373 8.361269951 56.892948151
123 1 0.0 14.756850243 10.209210396 38.80519104
124 1 0.0 14.756850243 10.209210396 55.796188354
125 1 0.0 15.395540237 7.042770386 40.39553833
126 1 0.0 15.395540237 7.042770386 57.386539459
127 1 0.0 8.361269951 2.089040041 27.089040756
128 1 0.0 8.361269951 2.089040041 44.080039978
129 1 0.0 10.209210396 2.234149933 28.185810089
130 1 0.0 10.209210396 2.234149933 45.176811218
131 1 0.0 7.042770386 1.595450044 26.595449448
132 1 0.0 7.042770386 1.595450044 43.586448669
133 1 0.0 2.089040041 8.629730225 39.901958466
134 1 0.0 2.089040041 8.629730225 56.892948151
135 1 0.0 2.234149933 6.78178978 38.80519104
136 1 0.0 2.234149933 6.78178978 55.796188354
137 1 0.0 1.595450044 9.94822979 40.39553833
138 1 0.0 1.595450044 9.94822979 57.386539459
139 1 0.0 8.629730225 14.901960373 27.089040756
140 1 0.0 8.629730225 14.901960373 44.080039978
141 1 0.0 6.78178978 14.756850243 28.185810089
142 1 0.0 6.78178978 14.756850243 45.176811218
143 1 0.0 9.94822979 15.395540237 26.595449448
144 1 0.0 9.94822979 15.395540237 43.586448669
145 1 0.0 2.089040041 14.901960373 33.629730225
146 1 0.0 2.089040041 14.901960373 50.620731354
147 1 0.0 3.185810089 14.756850243 31.781791687
148 1 0.0 3.185810089 14.756850243 48.772789001
149 1 0.0 1.595450044 15.395540237 34.948230743
150 1 0.0 1.595450044 15.395540237 51.939231873
151 1 0.0 14.901960373 14.901960373 33.361270905
152 1 0.0 14.901960373 14.901960373 50.352268219
153 1 0.0 14.756850243 13.805190086 35.209209442
154 1 0.0 14.756850243 13.805190086 52.200210571
155 1 0.0 15.395540237 15.395540237 32.042770386
156 1 0.0 15.395540237 15.395540237 49.033771515
157 1 0.0 14.901960373 2.089040041 33.629730225
158 1 0.0 14.901960373 2.089040041 50.620731354
159 1 0.0 13.805190086 2.234149933 31.781791687
160 1 0.0 13.805190086 2.234149933 48.772789001
161 1 0.0 15.395540237 1.595450044 34.948230743
162 1 0.0 15.395540237 1.595450044 51.939231873
163 1 0.0 2.089040041 2.089040041 33.361270905
164 1 0.0 2.089040041 2.089040041 50.352268219
165 1 0.0 2.234149933 3.185810089 35.209209442
166 1 0.0 2.234149933 3.185810089 52.200210571
167 1 0.0 1.595450044 1.595450044 32.042770386
168 1 0.0 1.595450044 1.595450044 49.033771515
169 1 0.0 3.185810089 2.234149933 35.209209442
170 1 0.0 3.185810089 2.234149933 52.200210571
171 1 0.0 2.234149933 13.805190086 31.781791687
172 1 0.0 2.234149933 13.805190086 48.772789001
173 1 0.0 13.805190086 14.756850243 35.209209442
174 1 0.0 13.805190086 14.756850243 52.200210571
175 1 0.0 14.756850243 3.185810089 31.781791687
176 1 0.0 14.756850243 3.185810089 48.772789001
177 1 0.0 6.78178978 3.185810089 39.756851196
178 1 0.0 6.78178978 3.185810089 56.747848511
179 1 0.0 6.78178978 13.805190086 27.234149933
180 1 0.0 6.78178978 13.805190086 44.225151062
181 1 0.0 13.805190086 10.209210396 39.756851196
182 1 0.0 13.805190086 10.209210396 56.747848511
183 1 0.0 10.209210396 3.185810089 27.234149933
184 1 0.0 10.209210396 3.185810089 44.225151062
185 1 0.0 3.185810089 6.78178978 39.756851196
186 1 0.0 3.185810089 6.78178978 56.747848511
187 1 0.0 10.209210396 13.805190086 39.756851196
188 1 0.0 10.209210396 13.805190086 56.747848511
189 1 0.0 13.805190086 6.78178978 27.234149933
190 1 0.0 13.805190086 6.78178978 44.225151062
191 1 0.0 3.185810089 10.209210396 27.234149933
192 1 0.0 3.185810089 10.209210396 44.225151062
193 2 0.0 6.417500019 14.593569756 37.291290283
194 2 0.0 6.417500019 14.593569756 54.282291412
195 2 0.0 14.593569756 10.57349968 29.699710846
196 2 0.0 14.593569756 10.57349968 46.69070816
197 2 0.0 10.57349968 2.397430182 37.291290283
198 2 0.0 10.57349968 2.397430182 54.282291412
199 2 0.0 9.197230339 15.635120392 34.757930756
200 2 0.0 9.197230339 15.635120392 51.748931885
201 2 0.0 10.096050262 14.904500008 35.81306839
202 2 0.0 10.096050262 14.904500008 52.804069519
203 2 0.0 10.663550377 15.225629807 34.387531281
204 2 0.0 10.663550377 15.225629807 51.378528595
205 2 0.0 2.397430182 6.417500019 29.699710846
206 2 0.0 2.397430182 6.417500019 46.69070816
207 2 0.0 15.635120392 7.793769836 32.233070374
208 2 0.0 15.635120392 7.793769836 49.224071503
209 2 0.0 14.904500008 6.894949913 31.177928925
210 2 0.0 14.904500008 6.894949913 48.168930054
211 2 0.0 15.225629807 6.327449799 32.603469849
212 2 0.0 15.225629807 6.327449799 49.594470978
213 2 0.0 6.417500019 2.397430182 29.699710846
214 2 0.0 6.417500019 2.397430182 46.69070816
215 2 0.0 2.397430182 10.57349968 37.291290283
216 2 0.0 2.397430182 10.57349968 54.282291412
217 2 0.0 10.57349968 14.593569756 29.699710846
218 2 0.0 10.57349968 14.593569756 46.69070816
219 2 0.0 9.197230339 1.355880022 32.233070374
220 2 0.0 9.197230339 1.355880022 49.224071503
221 2 0.0 10.096050262 2.086489916 31.177928925
222 2 0.0 10.096050262 2.086489916 48.168930054
223 2 0.0 10.663550377 1.765359998 32.603469849
224 2 0.0 10.663550377 1.765359998 49.594470978
225 2 0.0 14.593569756 6.417500019 37.291290283
226 2 0.0 14.593569756 6.417500019 54.282291412
227 2 0.0 1.355880022 7.793769836 34.757930756
228 2 0.0 1.355880022 7.793769836 51.748931885
229 2 0.0 2.086489916 6.894949913 35.81306839
230 2 0.0 2.086489916 6.894949913 52.804069519
231 2 0.0 1.765359998 6.327449799 34.387531281
232 2 0.0 1.765359998 6.327449799 51.378528595
233 2 0.0 12.29128933 6.417500019 39.593570709
234 2 0.0 12.29128933 6.417500019 56.584571838
235 2 0.0 6.417500019 4.699709892 27.39743042
236 2 0.0 6.417500019 4.699709892 44.388431549
237 2 0.0 7.793769836 7.233069897 40.635120392
238 2 0.0 7.793769836 7.233069897 57.626121521
239 2 0.0 6.894949913 6.177929878 39.904499054
240 2 0.0 6.894949913 6.177929878 56.895500183
241 2 0.0 6.327449799 7.603469849 40.225631714
242 2 0.0 6.327449799 7.603469849 57.216629028
243 2 0.0 4.699709892 10.57349968 39.593570709
244 2 0.0 4.699709892 10.57349968 56.584571838
245 2 0.0 10.57349968 12.29128933 27.39743042
246 2 0.0 10.57349968 12.29128933 44.388431549
247 2 0.0 9.197230339 9.757929802 40.635120392
248 2 0.0 9.197230339 9.757929802 57.626121521
249 2 0.0 10.096050262 10.813070297 39.904499054
250 2 0.0 10.096050262 10.813070297 56.895500183
251 2 0.0 10.663550377 9.387530327 40.225631714
252 2 0.0 10.663550377 9.387530327 57.216629028
253 2 0.0 12.29128933 10.57349968 27.39743042
254 2 0.0 12.29128933 10.57349968 44.388431549
255 2 0.0 10.57349968 4.699709892 39.593570709
256 2 0.0 10.57349968 4.699709892 56.584571838
257 2 0.0 9.197230339 7.233069897 26.355880737
258 2 0.0 9.197230339 7.233069897 43.346881866
259 2 0.0 10.096050262 6.177929878 27.086490631
260 2 0.0 10.096050262 6.177929878 44.07749176
261 2 0.0 10.663550377 7.603469849 26.765359879
262 2 0.0 10.663550377 7.603469849 43.7563591
263 2 0.0 4.699709892 6.417500019 27.39743042
264 2 0.0 4.699709892 6.417500019 44.388431549
265 2 0.0 6.417500019 12.29128933 39.593570709
266 2 0.0 6.417500019 12.29128933 56.584571838
267 2 0.0 7.793769836 9.757929802 26.355880737
268 2 0.0 7.793769836 9.757929802 43.346881866
269 2 0.0 6.894949913 10.813070297 27.086490631
270 2 0.0 6.894949913 10.813070297 44.07749176
271 2 0.0 6.327449799 9.387530327 26.765359879
272 2 0.0 6.327449799 9.387530327 43.7563591
273 2 0.0 14.593569756 12.29128933 31.41750145
274 2 0.0 14.593569756 12.29128933 48.408500671
275 2 0.0 1.355880022 9.757929802 32.793769836
276 2 0.0 1.355880022 9.757929802 49.784770966
277 2 0.0 2.086489916 10.813070297 31.894952774
278 2 0.0 2.086489916 10.813070297 48.885948181
279 2 0.0 1.765359998 9.387530327 31.327449799
280 2 0.0 1.765359998 9.387530327 48.318450928
281 2 0.0 14.593569756 4.699709892 35.573501587
282 2 0.0 14.593569756 4.699709892 52.564498901
283 2 0.0 4.699709892 2.397430182 31.41750145
284 2 0.0 4.699709892 2.397430182 48.408500671
285 2 0.0 7.233069897 15.635120392 32.793769836
286 2 0.0 7.233069897 15.635120392 49.784770966
287 2 0.0 6.177929878 14.904500008 31.894952774
288 2 0.0 6.177929878 14.904500008 48.885948181
289 2 0.0 7.603469849 15.225629807 31.327449799
290 2 0.0 7.603469849 15.225629807 48.318450928
291 2 0.0 2.397430182 12.29128933 35.573501587
292 2 0.0 2.397430182 12.29128933 52.564498901
293 2 0.0 15.635120392 9.757929802 34.197231293
294 2 0.0 15.635120392 9.757929802 51.188228607
295 2 0.0 14.904500008 10.813070297 35.096050262
296 2 0.0 14.904500008 10.813070297 52.087051392
297 2 0.0 15.225629807 9.387530327 35.663551331
298 2 0.0 15.225629807 9.387530327 52.654548645
299 2 0.0 12.29128933 14.593569756 31.41750145
300 2 0.0 12.29128933 14.593569756 48.408500671
301 2 0.0 2.397430182 4.699709892 31.41750145
302 2 0.0 2.397430182 4.699709892 48.408500671
303 2 0.0 4.699709892 14.593569756 35.573501587
304 2 0.0 4.699709892 14.593569756 52.564498901
305 2 0.0 7.233069897 1.355880022 34.197231293
306 2 0.0 7.233069897 1.355880022 51.188228607
307 2 0.0 6.177929878 2.086489916 35.096050262
308 2 0.0 6.177929878 2.086489916 52.087051392
309 2 0.0 7.603469849 1.765359998 35.663551331
310 2 0.0 7.603469849 1.765359998 52.654548645
311 2 0.0 12.29128933 2.397430182 35.573501587
312 2 0.0 12.29128933 2.397430182 52.564498901
313 2 0.0 14.913000107 6.098070145 28.795789719
314 2 0.0 14.913000107 6.098070145 45.78678894
315 2 0.0 16.289270401 9.851380348 26.262430191
316 2 0.0 16.289270401 9.851380348 43.253429413
317 2 0.0 15.390449524 10.581990242 27.317569733
318 2 0.0 15.390449524 10.581990242 44.308570862
319 2 0.0 14.822950363 10.260860443 25.892030716
320 2 0.0 14.822950363 10.260860443 42.883029938
321 2 0.0 6.098070145 2.078000069 38.195209503
322 2 0.0 6.098070145 2.078000069 55.186210632
323 2 0.0 2.078000069 10.892930031 28.795789719
324 2 0.0 2.078000069 10.892930031 45.78678894
325 2 0.0 0.701730013 7.139619827 26.262430191
326 2 0.0 0.701730013 7.139619827 43.253429413
327 2 0.0 1.600550056 6.409009933 27.317569733
328 2 0.0 1.600550056 6.409009933 44.308570862
329 2 0.0 2.168050051 6.730130196 25.892030716
330 2 0.0 2.168050051 6.730130196 42.883029938
331 2 0.0 10.892930031 14.913000107 38.195209503
332 2 0.0 10.892930031 14.913000107 55.186210632
333 2 0.0 7.139619827 16.289270401 40.728569031
334 2 0.0 7.139619827 16.289270401 57.71957016
335 2 0.0 6.409009933 15.390449524 39.673431396
336 2 0.0 6.409009933 15.390449524 56.664428711
337 2 0.0 6.730130196 14.822950363 41.098968506
338 2 0.0 6.730130196 14.822950363 58.089969635
339 2 0.0 14.913000107 10.892930031 38.195209503
340 2 0.0 14.913000107 10.892930031 55.186210632
341 2 0.0 16.289270401 7.139619827 40.728569031
342 2 0.0 16.289270401 7.139619827 57.71957016
343 2 0.0 15.390449524 6.409009933 39.673431396
344 2 0.0 15.390449524 6.409009933 56.664428711
345 2 0.0 14.822950363 6.730130196 41.098968506
346 2 0.0 14.822950363 6.730130196 58.089969635
347 2 0.0 10.892930031 2.078000069 28.795789719
348 2 0.0 10.892930031 2.078000069 45.78678894
349 2 0.0 2.078000069 6.098070145 38.195209503
350 2 0.0 2.078000069 6.098070145 55.186210632
351 2 0.0 6.098070145 14.913000107 28.795789719
352 2 0.0 6.098070145 14.913000107 45.78678894
353 2 0.0 3.795789957 14.913000107 31.098072052
354 2 0.0 3.795789957 14.913000107 48.089069366
355 2 0.0 14.913000107 13.195210457 35.892929077
356 2 0.0 14.913000107 13.195210457 52.883930206
357 2 0.0 16.289270401 15.728569984 32.139621735
358 2 0.0 16.289270401 15.728569984 49.130619049
359 2 0.0 15.390449524 14.673430443 31.409011841
360 2 0.0 15.390449524 14.673430443 48.400001526
361 2 0.0 14.822950363 16.098970413 31.730129242
362 2 0.0 14.822950363 16.098970413 48.721130371
363 2 0.0 13.195210457 2.078000069 31.098072052
364 2 0.0 13.195210457 2.078000069 48.089069366
365 2 0.0 2.078000069 3.795789957 35.892929077
366 2 0.0 2.078000069 3.795789957 52.883930206
367 2 0.0 0.701730013 1.262429953 32.139621735
368 2 0.0 0.701730013 1.262429953 49.130619049
369 2 0.0 1.600550056 2.317569971 31.409011841
370 2 0.0 1.600550056 2.317569971 48.400001526
371 2 0.0 2.168050051 0.892030001 31.730129242
372 2 0.0 2.168050051 0.892030001 48.721130371
373 2 0.0 3.795789957 2.078000069 35.892929077
374 2 0.0 3.795789957 2.078000069 52.883930206
375 2 0.0 2.078000069 13.195210457 31.098072052
376 2 0.0 2.078000069 13.195210457 48.089069366
377 2 0.0 0.701730013 15.728569984 34.851379395
378 2 0.0 0.701730013 15.728569984 51.842380524
379 2 0.0 1.600550056 14.673430443 35.581989288
380 2 0.0 1.600550056 14.673430443 52.572990417
381 2 0.0 2.168050051 16.098970413 35.260860443
382 2 0.0 2.168050051 16.098970413 52.251861572
383 2 0.0 13.195210457 14.913000107 35.892929077
384 2 0.0 13.195210457 14.913000107 52.883930206
385 2 0.0 14.913000107 3.795789957 31.098072052
386 2 0.0 14.913000107 3.795789957 48.089069366
387 2 0.0 16.289270401 1.262429953 34.851379395
388 2 0.0 16.289270401 1.262429953 51.842380524
389 2 0.0 15.390449524 2.317569971 35.581989288
390 2 0.0 15.390449524 2.317569971 52.572990417
391 2 0.0 14.822950363 0.892030001 35.260860443
392 2 0.0 14.822950363 0.892030001 52.251861572
393 2 0.0 6.098070145 3.795789957 39.912998199
394 2 0.0 6.098070145 3.795789957 56.903999329
395 2 0.0 9.851380348 1.262429953 41.289268494
396 2 0.0 9.851380348 1.262429953 58.280269623
397 2 0.0 10.581990242 2.317569971 40.390449524
398 2 0.0 10.581990242 2.317569971 57.381450653
399 2 0.0 10.260860443 0.892030001 39.822948456
400 2 0.0 10.260860443 0.892030001 56.813949585
401 2 0.0 6.098070145 13.195210457 27.077999115
402 2 0.0 6.098070145 13.195210457 44.069000244
403 2 0.0 9.851380348 15.728569984 25.701730728
404 2 0.0 9.851380348 15.728569984 42.69272995
405 2 0.0 10.581990242 14.673430443 26.600549698
406 2 0.0 10.581990242 14.673430443 43.59154892
407 2 0.0 10.260860443 16.098970413 27.168050766
408 2 0.0 10.260860443 16.098970413 44.159049988
409 2 0.0 13.195210457 10.892930031 39.912998199
410 2 0.0 13.195210457 10.892930031 56.903999329
411 2 0.0 10.892930031 3.795789957 27.077999115
412 2 0.0 10.892930031 3.795789957 44.069000244
413 2 0.0 7.139619827 1.262429953 25.701730728
414 2 0.0 7.139619827 1.262429953 42.69272995
415 2 0.0 6.409009933 2.317569971 26.600549698
416 2 0.0 6.409009933 2.317569971 43.59154892
417 2 0.0 6.730130196 0.892030001 27.168050766
418 2 0.0 6.730130196 0.892030001 44.159049988
419 2 0.0 3.795789957 6.098070145 39.912998199
420 2 0.0 3.795789957 6.098070145 56.903999329
421 2 0.0 1.262429953 9.851380348 41.289268494
422 2 0.0 1.262429953 9.851380348 58.280269623
423 2 0.0 2.317569971 10.581990242 40.390449524
424 2 0.0 2.317569971 10.581990242 57.381450653
425 2 0.0 0.892030001 10.260860443 39.822948456
426 2 0.0 0.892030001 10.260860443 56.813949585
427 2 0.0 10.892930031 13.195210457 39.912998199
428 2 0.0 10.892930031 13.195210457 56.903999329
429 2 0.0 13.195210457 6.098070145 27.077999115
430 2 0.0 13.195210457 6.098070145 44.069000244
431 2 0.0 3.795789957 10.892930031 27.077999115
432 2 0.0 3.795789957 10.892930031 44.069000244
433 3 0.0 6.96171999 16.452720642 36.601119995
434 3 0.0 6.96171999 16.452720642 53.59210968
435 3 0.0 16.452720642 10.029279709 30.389879227
436 3 0.0 16.452720642 10.029279709 47.380878448
437 3 0.0 10.029279709 0.538269937 36.601119995
438 3 0.0 10.029279709 0.538269937 53.59210968
439 3 0.0 0.538269937 6.96171999 30.389879227
440 3 0.0 0.538269937 6.96171999 47.380878448
441 3 0.0 6.96171999 0.538269937 30.389879227
442 3 0.0 6.96171999 0.538269937 47.380878448
443 3 0.0 0.538269937 10.029279709 36.601119995
444 3 0.0 0.538269937 10.029279709 53.59210968
445 3 0.0 10.029279709 16.452720642 30.389879227
446 3 0.0 10.029279709 16.452720642 47.380878448
447 3 0.0 16.452720642 6.96171999 36.601119995
448 3 0.0 16.452720642 6.96171999 53.59210968
449 3 0.0 11.601119995 6.96171999 41.452720642
450 3 0.0 11.601119995 6.96171999 58.443729401
451 3 0.0 6.96171999 5.38988018 25.53827095
452 3 0.0 6.96171999 5.38988018 42.529270172
453 3 0.0 5.38988018 10.029279709 41.452720642
454 3 0.0 5.38988018 10.029279709 58.443729401
455 3 0.0 10.029279709 11.601119995 25.53827095
456 3 0.0 10.029279709 11.601119995 42.529270172
457 3 0.0 11.601119995 10.029279709 25.53827095
458 3 0.0 11.601119995 10.029279709 42.529270172
459 3 0.0 10.029279709 5.38988018 41.452720642
460 3 0.0 10.029279709 5.38988018 58.443729401
461 3 0.0 5.38988018 6.96171999 25.53827095
462 3 0.0 5.38988018 6.96171999 42.529270172
463 3 0.0 6.96171999 11.601119995 41.452720642
464 3 0.0 6.96171999 11.601119995 58.443729401
465 3 0.0 16.452720642 11.601119995 31.96172142
466 3 0.0 16.452720642 11.601119995 48.952720642
467 3 0.0 16.452720642 5.38988018 35.029281616
468 3 0.0 16.452720642 5.38988018 52.020278931
469 3 0.0 5.38988018 0.538269937 31.96172142
470 3 0.0 5.38988018 0.538269937 48.952720642
471 3 0.0 0.538269937 11.601119995 35.029281616
472 3 0.0 0.538269937 11.601119995 52.020278931
473 3 0.0 11.601119995 16.452720642 31.96172142
474 3 0.0 11.601119995 16.452720642 48.952720642
475 3 0.0 0.538269937 5.38988018 31.96172142
476 3 0.0 0.538269937 5.38988018 48.952720642
477 3 0.0 5.38988018 16.452720642 35.029281616
478 3 0.0 5.38988018 16.452720642 52.020278931
479 3 0.0 11.601119995 0.538269937 35.029281616
480 3 0.0 11.601119995 0.538269937 52.020278931
481 3 0.0 15.457220078 7.957220078 28.105609894
482 3 0.0 15.457220078 7.957220078 45.096611023
483 3 0.0 7.957220078 1.533779979 38.885379791
484 3 0.0 7.957220078 1.533779979 55.87638092
485 3 0.0 1.533779979 9.033769608 28.105609894
486 3 0.0 1.533779979 9.033769608 45.096611023
487 3 0.0 9.033769608 15.457220078 38.885379791
488 3 0.0 9.033769608 15.457220078 55.87638092
489 3 0.0 15.457220078 9.033769608 38.885379791
490 3 0.0 15.457220078 9.033769608 55.87638092
491 3 0.0 9.033769608 1.533779979 28.105609894
492 3 0.0 9.033769608 1.533779979 45.096611023
493 3 0.0 1.533779979 7.957220078 38.885379791
494 3 0.0 1.533779979 7.957220078 55.87638092
495 3 0.0 7.957220078 15.457220078 28.105609894
496 3 0.0 7.957220078 15.457220078 45.096611023
497 3 0.0 3.105609894 15.457220078 32.95721817
498 3 0.0 3.105609894 15.457220078 49.948230743
499 3 0.0 15.457220078 13.885379791 34.033771515
500 3 0.0 15.457220078 13.885379791 51.024768829
501 3 0.0 13.885379791 1.533779979 32.95721817
502 3 0.0 13.885379791 1.533779979 49.948230743
503 3 0.0 1.533779979 3.105609894 34.033771515
504 3 0.0 1.533779979 3.105609894 51.024768829
505 3 0.0 3.105609894 1.533779979 34.033771515
506 3 0.0 3.105609894 1.533779979 51.024768829
507 3 0.0 1.533779979 13.885379791 32.95721817
508 3 0.0 1.533779979 13.885379791 49.948230743
509 3 0.0 13.885379791 15.457220078 34.033771515
510 3 0.0 13.885379791 15.457220078 51.024768829
511 3 0.0 15.457220078 3.105609894 32.95721817
512 3 0.0 15.457220078 3.105609894 49.948230743
513 3 0.0 7.957220078 3.105609894 40.45721817
514 3 0.0 7.957220078 3.105609894 57.448219299
515 3 0.0 7.957220078 13.885379791 26.533779144
516 3 0.0 7.957220078 13.885379791 43.524780273
517 3 0.0 13.885379791 9.033769608 40.45721817
518 3 0.0 13.885379791 9.033769608 57.448219299
519 3 0.0 9.033769608 3.105609894 26.533779144
520 3 0.0 9.033769608 3.105609894 43.524780273
521 3 0.0 3.105609894 7.957220078 40.45721817
522 3 0.0 3.105609894 7.957220078 57.448219299
523 3 0.0 9.033769608 13.885379791 40.45721817
524 3 0.0 9.033769608 13.885379791 57.448219299
525 3 0.0 13.885379791 7.957220078 26.533779144
526 3 0.0 13.885379791 7.957220078 43.524780273
527 3 0.0 3.105609894 9.033769608 26.533779144
528 3 0.0 3.105609894 9.033769608 43.524780273
529 3 0.0 8.440299988 1.417999983 68.876937866
530 3 0.0 9.460300446 1.417999983 68.876937866
531 3 0.0 8.48593998 7.267819881 66.626731873
532 3 0.0 9.505940437 7.267819881 66.626731873
533 3 0.0 8.538519859 14.006360054 64.165863037
534 3 0.0 9.558520317 14.006360054 64.165863037
535 3 0.0 8.540929794 14.312660217 81.084320068
536 3 0.0 9.560930252 14.312660217 81.084320068
537 3 0.0 8.471610069 5.430029869 78.93106842
538 3 0.0 9.491609573 5.430029869 78.93106842
539 3 0.0 8.419059753 15.682490349 97.387573242
540 3 0.0 9.439060211 15.682490349 97.387573242
541 3 0.0 8.517049789 11.249679565 98.310386658
542 3 0.0 9.537050247 11.249679565 98.310386658
543 3 0.0 8.466850281 4.817440033 89.38974762
544 3 0.0 9.486849785 4.817440033 89.38974762
545 3 0.0 8.43819046 1.141870022 112.767990112
546 3 0.0 9.458189964 1.141870022 112.767990112
547 3 0.0 8.545760155 14.925251961 108.226676941
548 3 0.0 9.565750122 14.925251961 108.226676941
549 3 0.0 8.438209534 1.141867757 110.687538147
550 3 0.0 9.458209991 1.141867757 110.687538147
551 3 0.0 8.514670372 10.943389893 112.767990112
552 3 0.0 9.534669876 10.943389893 112.767990112
553 4 0.0 8.495499611 0.0 37.743251801
554 4 0.0 8.495499611 0.0 54.734249115
555 4 0.0 0.0 8.495499611 29.247749329
556 4 0.0 0.0 8.495499611 46.238750458
557 4 0.0 8.495499611 0.0 29.247749329
558 4 0.0 8.495499611 0.0 46.238750458
559 4 0.0 0.0 8.495499611 37.743251801
560 4 0.0 0.0 8.495499611 54.734249115
561 4 0.0 12.743249893 8.495499611 25.0
562 4 0.0 12.743249893 8.495499611 41.991001129
563 4 0.0 8.495499611 4.247749805 25.0
564 4 0.0 8.495499611 4.247749805 41.991001129
565 4 0.0 4.247749805 8.495499611 25.0
566 4 0.0 4.247749805 8.495499611 41.991001129
567 4 0.0 8.495499611 12.743249893 25.0
568 4 0.0 8.495499611 12.743249893 41.991001129
569 4 0.0 0.0 12.743249893 33.495498657
570 4 0.0 0.0 12.743249893 50.486499786
571 4 0.0 0.0 4.247749805 33.495498657
572 4 0.0 0.0 4.247749805 50.486499786
573 4 0.0 4.247749805 0.0 33.495498657
574 4 0.0 4.247749805 0.0 50.486499786
575 4 0.0 12.743249893 0.0 33.495498657
576 4 0.0 12.743249893 0.0 50.486499786
577 5 0.0 1.0 2.596776009 11.99836731
578 5 0.0 15.694504738 2.596776009 11.99836731
579 5 0.0 1.0 7.687101841 11.99836731
580 5 0.0 15.694504738 7.687101841 11.99836731
581 5 0.0 1.0 12.777427673 11.99836731
582 5 0.0 15.694504738 12.777427673 11.99836731
583 5 0.0 3.938900948 2.596776009 11.99836731
584 5 0.0 3.938900948 7.687101841 11.99836731
585 5 0.0 3.938900948 12.777427673 11.99836731
586 5 0.0 6.877801895 2.596776009 11.99836731
587 5 0.0 6.877801895 7.687101841 11.99836731
588 5 0.0 6.877801895 12.777427673 11.99836731
589 5 0.0 9.816702843 2.596776009 11.99836731
590 5 0.0 9.816702843 7.687101841 11.99836731
591 5 0.0 9.816702843 12.777427673 11.99836731
592 5 0.0 12.75560379 2.596776009 11.99836731
593 5 0.0 12.75560379 7.687101841 11.99836731
594 5 0.0 12.75560379 12.777427673 11.99836731
595 5 0.0 2.469449759 5.141938686 11.99836731
596 5 0.0 2.469449759 10.232264519 11.99836731
597 5 0.0 2.469449759 15.322590828 11.99836731
598 5 0.0 5.408350945 5.141938686 11.99836731
599 5 0.0 5.408350945 10.232264519 11.99836731
600 5 0.0 5.408350945 15.322590828 11.99836731
601 5 0.0 8.347251892 5.141938686 11.99836731
602 5 0.0 8.347251892 10.232264519 11.99836731
603 5 0.0 8.347251892 15.322590828 11.99836731
604 5 0.0 11.28615284 5.141938686 11.99836731
605 5 0.0 11.28615284 10.232264519 11.99836731
606 5 0.0 11.28615284 15.322590828 11.99836731
607 5 0.0 14.225053787 5.141938686 11.99836731
608 5 0.0 14.225053787 10.232264519 11.99836731
609 5 0.0 14.225053787 15.322590828 11.99836731
610 5 0.0 2.469451904 1.748386621 14.395441055
611 5 0.0 2.469451904 6.838712692 14.395441055
612 5 0.0 2.469451904 11.929038048 14.395441055
613 5 0.0 5.408352852 1.748386621 14.395441055
614 5 0.0 5.408352852 6.838712692 14.395441055
615 5 0.0 5.408352852 11.929038048 14.395441055
616 5 0.0 8.347253799 1.748386621 14.395441055
617 5 0.0 8.347253799 6.838712692 14.395441055
618 5 0.0 8.347253799 11.929038048 14.395441055
619 5 0.0 11.286154747 1.748386621 14.395441055
620 5 0.0 11.286154747 6.838712692 14.395441055
621 5 0.0 11.286154747 11.929038048 14.395441055
622 5 0.0 14.225055695 1.748386621 14.395441055