# LAMMPS data file written by Ovito Basic 3.0.0-dev791
1349 atoms
3 atom types
0.0 24.7978668213 xlo xhi
0.0 30.0658149719 ylo yhi
0.0 50.0 zlo zhi

Atoms  # charge

1 1 0.0 0.0 1.431708336 4.005378246
2 1 0.0 0.0 5.726825237 4.005378246
3 1 0.0 0.0 10.021941185 4.005378246
4 1 0.0 0.0 14.31705761 4.005378246
5 1 0.0 0.0 18.612174988 4.005378246
6 1 0.0 0.0 22.907291412 4.005378246
7 1 0.0 0.0 27.202407837 4.005378246
8 1 0.0 2.479786634 1.431708336 4.005378246
9 1 0.0 2.479786634 5.726825237 4.005378246
10 1 0.0 2.479786634 10.021941185 4.005378246
11 1 0.0 2.479786634 14.31705761 4.005378246
12 1 0.0 2.479786634 18.612174988 4.005378246
13 1 0.0 2.479786634 22.907291412 4.005378246
14 1 0.0 2.479786634 27.202407837 4.005378246
15 1 0.0 4.959573269 1.431708336 4.005378246
16 1 0.0 4.959573269 5.726825237 4.005378246
17 1 0.0 4.959573269 10.021941185 4.005378246
18 1 0.0 4.959573269 14.31705761 4.005378246
19 1 0.0 4.959573269 18.612174988 4.005378246
20 1 0.0 4.959573269 22.907291412 4.005378246
21 1 0.0 4.959573269 27.202407837 4.005378246
22 1 0.0 7.439360142 1.431708336 4.005378246
23 1 0.0 7.439360142 5.726825237 4.005378246
24 1 0.0 7.439360142 10.021941185 4.005378246
25 1 0.0 7.439360142 14.31705761 4.005378246
26 1 0.0 7.439360142 18.612174988 4.005378246
27 1 0.0 7.439360142 22.907291412 4.005378246
28 1 0.0 7.439360142 27.202407837 4.005378246
29 1 0.0 9.919146538 1.431708336 4.005378246
30 1 0.0 9.919146538 5.726825237 4.005378246
31 1 0.0 9.919146538 10.021941185 4.005378246
32 1 0.0 9.919146538 14.31705761 4.005378246
33 1 0.0 9.919146538 18.612174988 4.005378246
34 1 0.0 9.919146538 22.907291412 4.005378246
35 1 0.0 9.919146538 27.202407837 4.005378246
36 1 0.0 12.398933411 1.431708336 4.005378246
37 1 0.0 12.398933411 5.726825237 4.005378246
38 1 0.0 12.398933411 10.021941185 4.005378246
39 1 0.0 12.398933411 14.31705761 4.005378246
40 1 0.0 12.398933411 18.612174988 4.005378246
41 1 0.0 12.398933411 22.907291412 4.005378246
42 1 0.0 12.398933411 27.202407837 4.005378246
43 1 0.0 14.878720284 1.431708336 4.005378246
44 1 0.0 14.878720284 5.726825237 4.005378246
45 1 0.0 14.878720284 10.021941185 4.005378246
46 1 0.0 14.878720284 14.31705761 4.005378246
47 1 0.0 14.878720284 18.612174988 4.005378246
48 1 0.0 14.878720284 22.907291412 4.005378246
49 1 0.0 14.878720284 27.202407837 4.005378246
50 1 0.0 17.358507156 1.431708336 4.005378246
51 1 0.0 17.358507156 5.726825237 4.005378246
52 1 0.0 17.358507156 10.021941185 4.005378246
53 1 0.0 17.358507156 14.31705761 4.005378246
54 1 0.0 17.358507156 18.612174988 4.005378246
55 1 0.0 17.358507156 22.907291412 4.005378246
56 1 0.0 17.358507156 27.202407837 4.005378246
57 1 0.0 19.838293076 1.431708336 4.005378246
58 1 0.0 19.838293076 5.726825237 4.005378246
59 1 0.0 19.838293076 10.021941185 4.005378246
60 1 0.0 19.838293076 14.31705761 4.005378246
61 1 0.0 19.838293076 18.612174988 4.005378246
62 1 0.0 19.838293076 22.907291412 4.005378246
63 1 0.0 19.838293076 27.202407837 4.005378246
64 1 0.0 22.318078995 1.431708336 4.005378246
65 1 0.0 22.318078995 5.726825237 4.005378246
66 1 0.0 22.318078995 10.021941185 4.005378246
67 1 0.0 22.318078995 14.31705761 4.005378246
68 1 0.0 22.318078995 18.612174988 4.005378246
69 1 0.0 22.318078995 22.907291412 4.005378246
70 1 0.0 22.318078995 27.202407837 4.005378246
71 1 0.0 1.239893436 3.57926631 4.005378246
72 1 0.0 1.239893436 7.87438345 4.005378246
73 1 0.0 1.239893436 12.169499397 4.005378246
74 1 0.0 1.239893436 16.464616776 4.005378246
75 1 0.0 1.239893436 20.7597332 4.005378246
76 1 0.0 1.239893436 25.054849625 4.005378246
77 1 0.0 1.239893436 29.349964142 4.005378246
78 1 0.0 3.719680071 3.57926631 4.005378246
79 1 0.0 3.719680071 7.87438345 4.005378246
80 1 0.0 3.719680071 12.169499397 4.005378246
81 1 0.0 3.719680071 16.464616776 4.005378246
82 1 0.0 3.719680071 20.7597332 4.005378246
83 1 0.0 3.719680071 25.054849625 4.005378246
84 1 0.0 3.719680071 29.349964142 4.005378246
85 1 0.0 6.199466705 3.57926631 4.005378246
86 1 0.0 6.199466705 7.87438345 4.005378246
87 1 0.0 6.199466705 12.169499397 4.005378246
88 1 0.0 6.199466705 16.464616776 4.005378246
89 1 0.0 6.199466705 20.7597332 4.005378246
90 1 0.0 6.199466705 25.054849625 4.005378246
91 1 0.0 6.199466705 29.349964142 4.005378246
92 1 0.0 8.679253578 3.57926631 4.005378246
93 1 0.0 8.679253578 7.87438345 4.005378246
94 1 0.0 8.679253578 12.169499397 4.005378246
95 1 0.0 8.679253578 16.464616776 4.005378246
96 1 0.0 8.679253578 20.7597332 4.005378246
97 1 0.0 8.679253578 25.054849625 4.005378246
98 1 0.0 8.679253578 29.349964142 4.005378246
99 1 0.0 11.159040451 3.57926631 4.005378246
100 1 0.0 11.159040451 7.87438345 4.005378246
101 1 0.0 11.159040451 12.169499397 4.005378246
102 1 0.0 11.159040451 16.464616776 4.005378246
103 1 0.0 11.159040451 20.7597332 4.005378246
104 1 0.0 11.159040451 25.054849625 4.005378246
105 1 0.0 11.159040451 29.349964142 4.005378246
106 1 0.0 13.638827324 3.57926631 4.005378246
107 1 0.0 13.638827324 7.87438345 4.005378246
108 1 0.0 13.638827324 12.169499397 4.005378246
109 1 0.0 13.638827324 16.464616776 4.005378246
110 1 0.0 13.638827324 20.7597332 4.005378246
111 1 0.0 13.638827324 25.054849625 4.005378246
112 1 0.0 13.638827324 29.349964142 4.005378246
113 1 0.0 16.118614197 3.57926631 4.005378246
114 1 0.0 16.118614197 7.87438345 4.005378246
115 1 0.0 16.118614197 12.169499397 4.005378246
116 1 0.0 16.118614197 16.464616776 4.005378246
117 1 0.0 16.118614197 20.7597332 4.005378246
118 1 0.0 16.118614197 25.054849625 4.005378246
119 1 0.0 16.118614197 29.349964142 4.005378246
120 1 0.0 18.598400116 3.57926631 4.005378246
121 1 0.0 18.598400116 7.87438345 4.005378246
122 1 0.0 18.598400116 12.169499397 4.005378246
123 1 0.0 18.598400116 16.464616776 4.005378246
124 1 0.0 18.598400116 20.7597332 4.005378246
125 1 0.0 18.598400116 25.054849625 4.005378246
126 1 0.0 18.598400116 29.349964142 4.005378246
127 1 0.0 21.078187943 3.57926631 4.005378246
128 1 0.0 21.078187943 7.87438345 4.005378246
129 1 0.0 21.078187943 12.169499397 4.005378246
130 1 0.0 21.078187943 16.464616776 4.005378246
131 1 0.0 21.078187943 20.7597332 4.005378246
132 1 0.0 21.078187943 25.054849625 4.005378246
133 1 0.0 21.078187943 29.349964142 4.005378246
134 1 0.0 23.557973862 3.57926631 4.005378246
135 1 0.0 23.557973862 7.87438345 4.005378246
136 1 0.0 23.557973862 12.169499397 4.005378246
137 1 0.0 23.557973862 16.464616776 4.005378246
138 1 0.0 23.557973862 20.7597332 4.005378246
139 1 0.0 23.557973862 25.054849625 4.005378246
140 1 0.0 23.557973862 29.349964142 4.005378246
141 1 0.0 1.239893317 0.715849876 6.040978909
142 1 0.0 1.239893317 5.010966778 6.040978909
143 1 0.0 1.239893317 9.306083679 6.040978909
144 1 0.0 1.239893317 13.60119915 6.040978909
145 1 0.0 1.239893317 17.896316528 6.040978909
146 1 0.0 1.239893317 22.191432953 6.040978909
147 1 0.0 1.239893317 26.486549377 6.040978909
148 1 0.0 3.719680071 0.715849876 6.040978909
149 1 0.0 3.719680071 5.010966778 6.040978909
150 1 0.0 3.719680071 9.306083679 6.040978909
151 1 0.0 3.719680071 13.60119915 6.040978909
152 1 0.0 3.719680071 17.896316528 6.040978909
153 1 0.0 3.719680071 22.191432953 6.040978909
154 1 0.0 3.719680071 26.486549377 6.040978909
155 1 0.0 6.199466705 0.715849876 6.040978909
156 1 0.0 6.199466705 5.010966778 6.040978909
157 1 0.0 6.199466705 9.306083679 6.040978909
158 1 0.0 6.199466705 13.60119915 6.040978909
159 1 0.0 6.199466705 17.896316528 6.040978909
160 1 0.0 6.199466705 22.191432953 6.040978909
161 1 0.0 6.199466705 26.486549377 6.040978909
162 1 0.0 8.679253578 0.715849876 6.040978909
163 1 0.0 8.679253578 5.010966778 6.040978909
164 1 0.0 8.679253578 9.306083679 6.040978909
165 1 0.0 8.679253578 13.60119915 6.040978909
166 1 0.0 8.679253578 17.896316528 6.040978909
167 1 0.0 8.679253578 22.191432953 6.040978909
168 1 0.0 8.679253578 26.486549377 6.040978909
169 1 0.0 11.159040451 0.715849876 6.040978909
170 1 0.0 11.159040451 5.010966778 6.040978909
171 1 0.0 11.159040451 9.306083679 6.040978909
172 1 0.0 11.159040451 13.60119915 6.040978909
173 1 0.0 11.159040451 17.896316528 6.040978909
174 1 0.0 11.159040451 22.191432953 6.040978909
175 1 0.0 11.159040451 26.486549377 6.040978909
176 1 0.0 13.638827324 0.715849876 6.040978909
177 1 0.0 13.638827324 5.010966778 6.040978909
178 1 0.0 13.638827324 9.306083679 6.040978909
179 1 0.0 13.638827324 13.60119915 6.040978909
180 1 0.0 13.638827324 17.896316528 6.040978909
181 1 0.0 13.638827324 22.191432953 6.040978909
182 1 0.0 13.638827324 26.486549377 6.040978909
183 1 0.0 16.118614197 0.715849876 6.040978909
184 1 0.0 16.118614197 5.010966778 6.040978909
185 1 0.0 16.118614197 9.306083679 6.040978909
186 1 0.0 16.118614197 13.60119915 6.040978909
187 1 0.0 16.118614197 17.896316528 6.040978909
188 1 0.0 16.118614197 22.191432953 6.040978909
189 1 0.0 16.118614197 26.486549377 6.040978909
190 1 0.0 18.598400116 0.715849876 6.040978909
191 1 0.0 18.598400116 5.010966778 6.040978909
192 1 0.0 18.598400116 9.306083679 6.040978909
193 1 0.0 18.598400116 13.60119915 6.040978909
194 1 0.0 18.598400116 17.896316528 6.040978909
195 1 0.0 18.598400116 22.191432953 6.040978909
196 1 0.0 18.598400116 26.486549377 6.040978909
197 1 0.0 21.078187943 0.715849876 6.040978909
198 1 0.0 21.078187943 5.010966778 6.040978909
199 1 0.0 21.078187943 9.306083679 6.040978909
200 1 0.0 21.078187943 13.60119915 6.040978909
201 1 0.0 21.078187943 17.896316528 6.040978909
202 1 0.0 21.078187943 22.191432953 6.040978909
203 1 0.0 21.078187943 26.486549377 6.040978909
204 1 0.0 23.557973862 0.715849876 6.040978909
205 1 0.0 23.557973862 5.010966778 6.040978909
206 1 0.0 23.557973862 9.306083679 6.040978909
207 1 0.0 23.557973862 13.60119915 6.040978909
208 1 0.0 23.557973862 17.896316528 6.040978909
209 1 0.0 23.557973862 22.191432953 6.040978909
210 1 0.0 23.557973862 26.486549377 6.040978909
211 1 0.0 0.0 2.863408327 6.040978909
212 1 0.0 0.0 7.15852499 6.040978909
213 1 0.0 0.0 11.453640938 6.040978909
214 1 0.0 0.0 15.748757362 6.040978909
215 1 0.0 0.0 20.043874741 6.040978909
216 1 0.0 0.0 24.338991165 6.040978909
217 1 0.0 0.0 28.63410759 6.040978909
218 1 0.0 2.479786634 2.863408327 6.040978909
219 1 0.0 2.479786634 7.15852499 6.040978909
220 1 0.0 2.479786634 11.453640938 6.040978909
221 1 0.0 2.479786634 15.748757362 6.040978909
222 1 0.0 2.479786634 20.043874741 6.040978909
223 1 0.0 2.479786634 24.338991165 6.040978909
224 1 0.0 2.479786634 28.63410759 6.040978909
225 1 0.0 4.959573269 2.863408327 6.040978909
226 1 0.0 4.959573269 7.15852499 6.040978909
227 1 0.0 4.959573269 11.453640938 6.040978909
228 1 0.0 4.959573269 15.748757362 6.040978909
229 1 0.0 4.959573269 20.043874741 6.040978909
230 1 0.0 4.959573269 24.338991165 6.040978909
231 1 0.0 4.959573269 28.63410759 6.040978909
232 1 0.0 7.439360142 2.863408327 6.040978909
233 1 0.0 7.439360142 7.15852499 6.040978909
234 1 0.0 7.439360142 11.453640938 6.040978909
235 1 0.0 7.439360142 15.748757362 6.040978909
236 1 0.0 7.439360142 20.043874741 6.040978909
237 1 0.0 7.439360142 24.338991165 6.040978909
238 1 0.0 7.439360142 28.63410759 6.040978909
239 1 0.0 9.919146538 2.863408327 6.040978909
240 1 0.0 9.919146538 7.15852499 6.040978909
241 1 0.0 9.919146538 11.453640938 6.040978909
242 1 0.0 9.919146538 15.748757362 6.040978909
243 1 0.0 9.919146538 20.043874741 6.040978909
244 1 0.0 9.919146538 24.338991165 6.040978909
245 1 0.0 9.919146538 28.63410759 6.040978909
246 1 0.0 12.398933411 2.863408327 6.040978909
247 1 0.0 12.398933411 7.15852499 6.040978909
248 1 0.0 12.398933411 11.453640938 6.040978909
249 1 0.0 12.398933411 15.748757362 6.040978909
250 1 0.0 12.398933411 20.043874741 6.040978909
251 1 0.0 12.398933411 24.338991165 6.040978909
252 1 0.0 12.398933411 28.63410759 6.040978909
253 1 0.0 14.878720284 2.863408327 6.040978909
254 1 0.0 14.878720284 7.15852499 6.040978909
255 1 0.0 14.878720284 11.453640938 6.040978909
256 1 0.0 14.878720284 15.748757362 6.040978909
257 1 0.0 14.878720284 20.043874741 6.040978909
258 1 0.0 14.878720284 24.338991165 6.040978909
259 1 0.0 14.878720284 28.63410759 6.040978909
260 1 0.0 17.358507156 2.863408327 6.040978909
261 1 0.0 17.358507156 7.15852499 6.040978909
262 1 0.0 17.358507156 11.453640938 6.040978909
263 1 0.0 17.358507156 15.748757362 6.040978909
264 1 0.0 17.358507156 20.043874741 6.040978909
265 1 0.0 17.358507156 24.338991165 6.040978909
266 1 0.0 17.358507156 28.63410759 6.040978909
267 1 0.0 19.838293076 2.863408327 6.040978909
268 1 0.0 19.838293076 7.15852499 6.040978909
269 1 0.0 19.838293076 11.453640938 6.040978909
270 1 0.0 19.838293076 15.748757362 6.040978909
271 1 0.0 19.838293076 20.043874741 6.040978909
272 1 0.0 19.838293076 24.338991165 6.040978909
273 1 0.0 19.838293076 28.63410759 6.040978909
274 1 0.0 22.318078995 2.863408327 6.040978909
275 1 0.0 22.318078995 7.15852499 6.040978909
276 1 0.0 22.318078995 11.453640938 6.040978909
277 1 0.0 22.318078995 15.748757362 6.040978909
278 1 0.0 22.318078995 20.043874741 6.040978909
279 1 0.0 22.318078995 24.338991165 6.040978909
280 1 0.0 22.318078995 28.63410759 6.040978909
281 1 0.0 0.0 0.0 8.081802368
282 1 0.0 0.0 4.295116425 8.081802368
283 1 0.0 0.0 8.590232849 8.081802368
284 1 0.0 0.0 12.885349274 8.081802368
285 1 0.0 0.0 17.180465698 8.081802368
286 1 0.0 0.0 21.475582123 8.081802368
287 1 0.0 0.0 25.770698547 8.081802368
288 1 0.0 2.479786634 0.0 8.081802368
289 1 0.0 2.479786634 4.295116425 8.081802368
290 1 0.0 2.479786634 8.590232849 8.081802368
291 1 0.0 2.479786634 12.885349274 8.081802368
292 1 0.0 2.479786634 17.180465698 8.081802368
293 1 0.0 2.479786634 21.475582123 8.081802368
294 1 0.0 2.479786634 25.770698547 8.081802368
295 1 0.0 4.959573269 0.0 8.081802368
296 1 0.0 4.959573269 4.295116425 8.081802368
297 1 0.0 4.959573269 8.590232849 8.081802368
298 1 0.0 4.959573269 12.885349274 8.081802368
299 1 0.0 4.959573269 17.180465698 8.081802368
300 1 0.0 4.959573269 21.475582123 8.081802368
301 1 0.0 4.959573269 25.770698547 8.081802368
302 1 0.0 7.439360142 0.0 8.081802368
303 1 0.0 7.439360142 4.295116425 8.081802368
304 1 0.0 7.439360142 8.590232849 8.081802368
305 1 0.0 7.439360142 12.885349274 8.081802368
306 1 0.0 7.439360142 17.180465698 8.081802368
307 1 0.0 7.439360142 21.475582123 8.081802368
308 1 0.0 7.439360142 25.770698547 8.081802368
309 1 0.0 9.919146538 0.0 8.081802368
310 1 0.0 9.919146538 4.295116425 8.081802368
311 1 0.0 9.919146538 8.590232849 8.081802368
312 1 0.0 9.919146538 12.885349274 8.081802368
313 1 0.0 9.919146538 17.180465698 8.081802368
314 1 0.0 9.919146538 21.475582123 8.081802368
315 1 0.0 9.919146538 25.770698547 8.081802368
316 1 0.0 12.398933411 0.0 8.081802368
317 1 0.0 12.398933411 4.295116425 8.081802368
318 1 0.0 12.398933411 8.590232849 8.081802368
319 1 0.0 12.398933411 12.885349274 8.081802368
320 1 0.0 12.398933411 17.180465698 8.081802368
321 1 0.0 12.398933411 21.475582123 8.081802368
322 1 0.0 12.398933411 25.770698547 8.081802368
323 1 0.0 14.878720284 0.0 8.081802368
324 1 0.0 14.878720284 4.295116425 8.081802368
325 1 0.0 14.878720284 8.590232849 8.081802368
326 1 0.0 14.878720284 12.885349274 8.081802368
327 1 0.0 14.878720284 17.180465698 8.081802368
328 1 0.0 14.878720284 21.475582123 8.081802368
329 1 0.0 14.878720284 25.770698547 8.081802368
330 1 0.0 17.358507156 0.0 8.081802368
331 1 0.0 17.358507156 4.295116425 8.081802368
332 1 0.0 17.358507156 8.590232849 8.081802368
333 1 0.0 17.358507156 12.885349274 8.081802368
334 1 0.0 17.358507156 17.180465698 8.081802368
335 1 0.0 17.358507156 21.475582123 8.081802368
336 1 0.0 17.358507156 25.770698547 8.081802368
337 1 0.0 19.838293076 0.0 8.081802368
338 1 0.0 19.838293076 4.295116425 8.081802368
339 1 0.0 19.838293076 8.590232849 8.081802368
340 1 0.0 19.838293076 12.885349274 8.081802368
341 1 0.0 19.838293076 17.180465698 8.081802368
342 1 0.0 19.838293076 21.475582123 8.081802368
343 1 0.0 19.838293076 25.770698547 8.081802368
344 1 0.0 22.318078995 0.0 8.081802368
345 1 0.0 22.318078995 4.295116425 8.081802368
346 1 0.0 22.318078995 8.590232849 8.081802368
347 1 0.0 22.318078995 12.885349274 8.081802368
348 1 0.0 22.318078995 17.180465698 8.081802368
349 1 0.0 22.318078995 21.475582123 8.081802368
350 1 0.0 22.318078995 25.770698547 8.081802368
351 1 0.0 1.239893317 2.147558212 8.081802368
352 1 0.0 1.239893317 6.442675114 8.081802368
353 1 0.0 1.239893317 10.737791061 8.081802368
354 1 0.0 1.239893317 15.032907486 8.081802368
355 1 0.0 1.239893317 19.328025818 8.081802368
356 1 0.0 1.239893317 23.623142242 8.081802368
357 1 0.0 1.239893317 27.918258667 8.081802368
358 1 0.0 3.719680071 2.147558212 8.081802368
359 1 0.0 3.719680071 6.442675114 8.081802368
360 1 0.0 3.719680071 10.737791061 8.081802368
361 1 0.0 3.719680071 15.032907486 8.081802368
362 1 0.0 3.719680071 19.328025818 8.081802368
363 1 0.0 3.719680071 23.623142242 8.081802368
364 1 0.0 3.719680071 27.918258667 8.081802368
365 1 0.0 6.199466705 2.147558212 8.081802368
366 1 0.0 6.199466705 6.442675114 8.081802368
367 1 0.0 6.199466705 10.737791061 8.081802368
368 1 0.0 6.199466705 15.032907486 8.081802368
369 1 0.0 6.199466705 19.328025818 8.081802368
370 1 0.0 6.199466705 23.623142242 8.081802368
371 1 0.0 6.199466705 27.918258667 8.081802368
372 1 0.0 8.679253578 2.147558212 8.081802368
373 1 0.0 8.679253578 6.442675114 8.081802368
374 1 0.0 8.679253578 10.737791061 8.081802368
375 1 0.0 8.679253578 15.032907486 8.081802368
376 1 0.0 8.679253578 19.328025818 8.081802368
377 1 0.0 8.679253578 23.623142242 8.081802368
378 1 0.0 8.679253578 27.918258667 8.081802368
379 1 0.0 11.159040451 2.147558212 8.081802368
380 1 0.0 11.159040451 6.442675114 8.081802368
381 1 0.0 11.159040451 10.737791061 8.081802368
382 1 0.0 11.159040451 15.032907486 8.081802368
383 1 0.0 11.159040451 19.328025818 8.081802368
384 1 0.0 11.159040451 23.623142242 8.081802368
385 1 0.0 11.159040451 27.918258667 8.081802368
386 1 0.0 13.638827324 2.147558212 8.081802368
387 1 0.0 13.638827324 6.442675114 8.081802368
388 1 0.0 13.638827324 10.737791061 8.081802368
389 1 0.0 13.638827324 15.032907486 8.081802368
390 1 0.0 13.638827324 19.328025818 8.081802368
391 1 0.0 13.638827324 23.623142242 8.081802368
392 1 0.0 13.638827324 27.918258667 8.081802368
393 1 0.0 16.118614197 2.147558212 8.081802368
394 1 0.0 16.118614197 6.442675114 8.081802368
395 1 0.0 16.118614197 10.737791061 8.081802368
396 1 0.0 16.118614197 15.032907486 8.081802368
397 1 0.0 16.118614197 19.328025818 8.081802368
398 1 0.0 16.118614197 23.623142242 8.081802368
399 1 0.0 16.118614197 27.918258667 8.081802368
400 1 0.0 18.598400116 2.147558212 8.081802368
401 1 0.0 18.598400116 6.442675114 8.081802368
402 1 0.0 18.598400116 10.737791061 8.081802368
403 1 0.0 18.598400116 15.032907486 8.081802368
404 1 0.0 18.598400116 19.328025818 8.081802368
405 1 0.0 18.598400116 23.623142242 8.081802368
406 1 0.0 18.598400116 27.918258667 8.081802368
407 1 0.0 21.078187943 2.147558212 8.081802368
408 1 0.0 21.078187943 6.442675114 8.081802368
409 1 0.0 21.078187943 10.737791061 8.081802368
410 1 0.0 21.078187943 15.032907486 8.081802368
411 1 0.0 21.078187943 19.328025818 8.081802368
412 1 0.0 21.078187943 23.623142242 8.081802368
413 1 0.0 21.078187943 27.918258667 8.081802368
414 1 0.0 23.557973862 2.147558212 8.081802368
415 1 0.0 23.557973862 6.442675114 8.081802368
416 1 0.0 23.557973862 10.737791061 8.081802368
417 1 0.0 23.557973862 15.032907486 8.081802368
418 1 0.0 23.557973862 19.328025818 8.081802368
419 1 0.0 23.557973862 23.623142242 8.081802368
420 1 0.0 23.557973862 27.918258667 8.081802368
421 1 0.0 0.0 1.431708336 10.117379189
422 1 0.0 0.0 5.726825237 10.117379189
423 1 0.0 0.0 10.021941185 10.117379189
424 1 0.0 0.0 14.31705761 10.117379189
425 1 0.0 0.0 18.612174988 10.117379189
426 1 0.0 0.0 22.907291412 10.117379189
427 1 0.0 0.0 27.202407837 10.117379189
428 1 0.0 2.479786634 1.431708336 10.117379189
429 1 0.0 2.479786634 5.726825237 10.117379189
430 1 0.0 2.479786634 10.021941185 10.117379189
431 1 0.0 2.479786634 14.31705761 10.117379189
432 1 0.0 2.479786634 18.612174988 10.117379189
433 1 0.0 2.479786634 22.907291412 10.117379189
434 1 0.0 2.479786634 27.202407837 10.117379189
435 1 0.0 4.959573269 1.431708336 10.117379189
436 1 0.0 4.959573269 5.726825237 10.117379189
437 1 0.0 4.959573269 10.021941185 10.117379189
438 1 0.0 4.959573269 14.31705761 10.117379189
439 1 0.0 4.959573269 18.612174988 10.117379189
440 1 0.0 4.959573269 22.907291412 10.117379189
441 1 0.0 4.959573269 27.202407837 10.117379189
442 1 0.0 7.439360142 1.431708336 10.117379189
443 1 0.0 7.439360142 5.726825237 10.117379189
444 1 0.0 7.439360142 10.021941185 10.117379189
445 1 0.0 7.439360142 14.31705761 10.117379189
446 1 0.0 7.439360142 18.612174988 10.117379189
447 1 0.0 7.439360142 22.907291412 10.117379189
448 1 0.0 7.439360142 27.202407837 10.117379189
449 1 0.0 9.919146538 1.431708336 10.117379189
450 1 0.0 9.919146538 5.726825237 10.117379189
451 1 0.0 9.919146538 10.021941185 10.117379189
452 1 0.0 9.919146538 14.31705761 10.117379189
453 1 0.0 9.919146538 18.612174988 10.117379189
454 1 0.0 9.919146538 22.907291412 10.117379189
455 1 0.0 9.919146538 27.202407837 10.117379189
456 1 0.0 12.398933411 1.431708336 10.117379189
457 1 0.0 12.398933411 5.726825237 10.117379189
458 1 0.0 12.398933411 10.021941185 10.117379189
459 1 0.0 12.398933411 14.31705761 10.117379189
460 1 0.0 12.398933411 18.612174988 10.117379189
461 1 0.0 12.398933411 22.907291412 10.117379189
462 1 0.0 12.398933411 27.202407837 10.117379189
463 1 0.0 14.878720284 1.431708336 10.117379189
464 1 0.0 14.878720284 5.726825237 10.117379189
465 1 0.0 14.878720284 10.021941185 10.117379189
466 1 0.0 14.878720284 14.31705761 10.117379189
467 1 0.0 14.878720284 18.612174988 10.117379189
468 1 0.0 14.878720284 22.907291412 10.117379189
469 1 0.0 14.878720284 27.202407837 10.117379189
470 1 0.0 17.358507156 1.431708336 10.117379189
471 1 0.0 17.358507156 5.726825237 10.117379189
472 1 0.0 17.358507156 10.021941185 10.117379189
473 1 0.0 17.358507156 14.31705761 10.117379189
474 1 0.0 17.358507156 18.612174988 10.117379189
475 1 0.0 17.358507156 22.907291412 10.117379189
476 1 0.0 17.358507156 27.202407837 10.117379189
477 1 0.0 19.838293076 1.431708336 10.117379189
478 1 0.0 19.838293076 5.726825237 10.117379189
479 1 0.0 19.838293076 10.021941185 10.117379189
480 1 0.0 19.838293076 14.31705761 10.117379189
481 1 0.0 19.838293076 18.612174988 10.117379189
482 1 0.0 19.838293076 22.907291412 10.117379189
483 1 0.0 19.838293076 27.202407837 10.117379189
484 1 0.0 22.318078995 1.431708336 10.117379189
485 1 0.0 22.318078995 5.726825237 10.117379189
486 1 0.0 22.318078995 10.021941185 10.117379189
487 1 0.0 22.318078995 14.31705761 10.117379189
488 1 0.0 22.318078995 18.612174988 10.117379189
489 1 0.0 22.318078995 22.907291412 10.117379189
490 1 0.0 22.318078995 27.202407837 10.117379189
491 1 0.0 1.239893436 3.57926631 10.117379189
492 1 0.0 1.239893436 7.87438345 10.117379189
493 1 0.0 1.239893436 12.169499397 10.117379189
494 1 0.0 1.239893436 16.464616776 10.117379189
495 1 0.0 1.239893436 20.7597332 10.117379189
496 1 0.0 1.239893436 25.054849625 10.117379189
497 1 0.0 1.239893436 29.349964142 10.117379189
498 1 0.0 3.719680071 3.57926631 10.117379189
499 1 0.0 3.719680071 7.87438345 10.117379189
500 1 0.0 3.719680071 12.169499397 10.117379189
501 1 0.0 3.719680071 16.464616776 10.117379189
502 1 0.0 3.719680071 20.7597332 10.117379189
503 1 0.0 3.719680071 25.054849625 10.117379189
504 1 0.0 3.719680071 29.349964142 10.117379189
505 1 0.0 6.199466705 3.57926631 10.117379189
506 1 0.0 6.199466705 7.87438345 10.117379189
507 1 0.0 6.199466705 12.169499397 10.117379189
508 1 0.0 6.199466705 16.464616776 10.117379189
509 1 0.0 6.199466705 20.7597332 10.117379189
510 1 0.0 6.199466705 25.054849625 10.117379189
511 1 0.0 6.199466705 29.349964142 10.117379189
512 1 0.0 8.679253578 3.57926631 10.117379189
513 1 0.0 8.679253578 7.87438345 10.117379189
514 1 0.0 8.679253578 12.169499397 10.117379189
515 1 0.0 8.679253578 16.464616776 10.117379189
516 1 0.0 8.679253578 20.7597332 10.117379189
517 1 0.0 8.679253578 25.054849625 10.117379189
518 1 0.0 8.679253578 29.349964142 10.117379189
519 1 0.0 11.159040451 3.57926631 10.117379189
520 1 0.0 11.159040451 7.87438345 10.117379189
521 1 0.0 11.159040451 12.169499397 10.117379189
522 1 0.0 11.159040451 16.464616776 10.117379189
523 1 0.0 11.159040451 20.7597332 10.117379189
524 1 0.0 11.159040451 25.054849625 10.117379189
525 1 0.0 11.159040451 29.349964142 10.117379189
526 1 0.0 13.638827324 3.57926631 10.117379189
527 1 0.0 13.638827324 7.87438345 10.117379189
528 1 0.0 13.638827324 12.169499397 10.117379189
529 1 0.0 13.638827324 16.464616776 10.117379189
530 1 0.0 13.638827324 20.7597332 10.117379189
531 1 0.0 13.638827324 25.054849625 10.117379189
532 1 0.0 13.638827324 29.349964142 10.117379189
533 1 0.0 16.118614197 3.57926631 10.117379189
534 1 0.0 16.118614197 7.87438345 10.117379189
535 1 0.0 16.118614197 12.169499397 10.117379189
536 1 0.0 16.118614197 16.464616776 10.117379189
537 1 0.0 16.118614197 20.7597332 10.117379189
538 1 0.0 16.118614197 25.054849625 10.117379189
539 1 0.0 16.118614197 29.349964142 10.117379189
540 1 0.0 18.598400116 3.57926631 10.117379189
541 1 0.0 18.598400116 7.87438345 10.117379189
542 1 0.0 18.598400116 12.169499397 10.117379189
543 1 0.0 18.598400116 16.464616776 10.117379189
544 1 0.0 18.598400116 20.7597332 10.117379189
545 1 0.0 18.598400116 25.054849625 10.117379189
546 1 0.0 18.598400116 29.349964142 10.117379189
547 1 0.0 21.078187943 3.57926631 10.117379189
548 1 0.0 21.078187943 7.87438345 10.117379189
549 1 0.0 21.078187943 12.169499397 10.117379189
550 1 0.0 21.078187943 16.464616776 10.117379189
551 1 0.0 21.078187943 20.7597332 10.117379189
552 1 0.0 21.078187943 25.054849625 10.117379189
553 1 0.0 21.078187943 29.349964142 10.117379189
554 1 0.0 23.557973862 3.57926631 10.117379189
555 1 0.0 23.557973862 7.87438345 10.117379189
556 1 0.0 23.557973862 12.169499397 10.117379189
557 1 0.0 23.557973862 16.464616776 10.117379189
558 1 0.0 23.557973862 20.7597332 10.117379189
559 1 0.0 23.557973862 25.054849625 10.117379189
560 1 0.0 23.557973862 29.349964142 10.117379189
561 1 0.0 1.239893317 0.715849876 12.130336761
562 1 0.0 1.239893317 5.010966778 12.130336761
563 1 0.0 1.239893317 9.306083679 12.130336761
564 1 0.0 1.239893317 13.60119915 12.130336761
565 1 0.0 1.239893317 17.896316528 12.130336761
566 1 0.0 1.239893317 22.191432953 12.130336761
567 1 0.0 1.239893317 26.486549377 12.130336761
568 1 0.0 3.719680071 0.715849876 12.130336761
569 1 0.0 3.719680071 5.010966778 12.130336761
570 1 0.0 3.719680071 9.306083679 12.130336761
571 1 0.0 3.719680071 13.60119915 12.130336761
572 1 0.0 3.719680071 17.896316528 12.130336761
573 1 0.0 3.719680071 22.191432953 12.130336761
574 1 0.0 3.719680071 26.486549377 12.130336761
575 1 0.0 6.199466705 0.715849876 12.130336761
576 1 0.0 6.199466705 5.010966778 12.130336761
577 1 0.0 6.199466705 9.306083679 12.130336761
578 1 0.0 6.199466705 13.60119915 12.130336761
579 1 0.0 6.199466705 17.896316528 12.130336761
580 1 0.0 6.199466705 22.191432953 12.130336761
581 1 0.0 6.199466705 26.486549377 12.130336761
582 1 0.0 8.679253578 0.715849876 12.130336761
583 1 0.0 8.679253578 5.010966778 12.130336761
584 1 0.0 8.679253578 9.306083679 12.130336761
585 1 0.0 8.679253578 13.60119915 12.130336761
586 1 0.0 8.679253578 17.896316528 12.130336761
587 1 0.0 8.679253578 22.191432953 12.130336761
588 1 0.0 8.679253578 26.486549377 12.130336761
589 1 0.0 11.159040451 0.715849876 12.130336761
590 1 0.0 11.159040451 5.010966778 12.130336761
591 1 0.0 11.159040451 9.306083679 12.130336761
592 1 0.0 11.159040451 13.60119915 12.130336761
593 1 0.0 11.159040451 17.896316528 12.130336761
594 1 0.0 11.159040451 22.191432953 12.130336761
595 1 0.0 11.159040451 26.486549377 12.130336761
596 1 0.0 13.638827324 0.715849876 12.130336761
597 1 0.0 13.638827324 5.010966778 12.130336761
598 1 0.0 13.638827324 9.306083679 12.130336761
599 1 0.0 13.638827324 13.60119915 12.130336761
600 1 0.0 13.638827324 17.896316528 12.130336761
601 1 0.0 13.638827324 22.191432953 12.130336761
602 1 0.0 13.638827324 26.486549377 12.130336761
603 1 0.0 16.118614197 0.715849876 12.130336761
604 1 0.0 16.118614197 5.010966778 12.130336761
605 1 0.0 16.118614197 9.306083679 12.130336761
606 1 0.0 16.118614197 13.60119915 12.130336761
607 1 0.0 16.118614197 17.896316528 12.130336761
608 1 0.0 16.118614197 22.191432953 12.130336761
609 1 0.0 16.118614197 26.486549377 12.130336761
610 1 0.0 18.598400116 0.715849876 12.130336761
611 1 0.0 18.598400116 5.010966778 12.130336761
612 1 0.0 18.598400116 9.306083679 12.130336761
613 1 0.0 18.598400116 13.60119915 12.130336761
614 1 0.0 18.598400116 17.896316528 12.130336761
615 1 0.0 18.598400116 22.191432953 12.130336761
616 1 0.0 18.598400116 26.486549377 12.130336761
617 1 0.0 21.078187943 0.715849876 12.130336761
618 1 0.0 21.078187943 5.010966778 12.130336761
619 1 0.0 21.078187943 9.306083679 12.130336761
620 1 0.0 21.078187943 13.60119915 12.130336761
621 1 0.0 21.078187943 17.896316528 12.130336761
622 1 0.0 21.078187943 22.191432953 12.130336761
623 1 0.0 21.078187943 26.486549377 12.130336761
624 1 0.0 23.557973862 0.715849876 12.130336761
625 1 0.0 23.557973862 5.010966778 12.130336761