# LAMMPS data file written by Ovito Basic 3.0.0-dev791
8 atoms
1 atom types
0.0 3.5737099648 xlo xhi
0.0 3.5737099648 ylo yhi
0.0 3.5737099648 zlo zhi

Atoms  # charge

1 1 0.0 0.893427491 2.680282593 0.893427491
2 1 0.0 0.0 0.0 1.786854982
3 1 0.0 0.893427491 0.893427491 2.680282593
4 1 0.0 0.0 1.786854982 0.0
5 1 0.0 2.680282593 2.680282593 2.680282593
6 1 0.0 1.786854982 0.0 0.0
7 1 0.0 2.680282593 0.893427491 0.893427491
8 1 0.0 1.786854982 1.786854982 1.786854982
