#Input file for lammps
 
10310 atoms
4 atom types
 
0.0 76.4566 xlo xhi
0.0 76.4566 ylo yhi
0.0 150 zlo zhi
 
Masses
 
1 28.06
2 14
3 12
4 1.008
 
Atoms
 
      1 1 0      1.02739       3.6451       2.2844
      2 1 0      4.85023       3.6451       2.2844
      3 1 0      8.67306       3.6451       2.2844
      4 1 0      12.4959       3.6451       2.2844
      5 1 0      16.3187       3.6451       2.2844
      6 1 0      20.1416       3.6451       2.2844
      7 1 0      23.9644       3.6451       2.2844
      8 1 0      27.7872       3.6451       2.2844
      9 1 0        31.61       3.6451       2.2844
     10 1 0      35.4329       3.6451       2.2844
     11 1 0      39.2557       3.6451       2.2844
     12 1 0      43.0785       3.6451       2.2844
     13 1 0      46.9014       3.6451       2.2844
     14 1 0      50.7242       3.6451       2.2844
     15 1 0       54.547       3.6451       2.2844
     16 1 0      58.3699       3.6451       2.2844
     17 1 0      62.1927       3.6451       2.2844
     18 1 0      66.0155       3.6451       2.2844
     19 1 0      69.8384       3.6451       2.2844
     20 1 0      73.6612       3.6451       2.2844
     21 1 0      1.02739      6.05535       2.2844
     22 1 0      4.85023      6.05535       2.2844
     23 1 0      8.67306      6.05535       2.2844
     24 1 0      12.4959      6.05535       2.2844
     25 1 0      16.3187      6.05535       2.2844
     26 1 0      20.1416      6.05535       2.2844
     27 1 0      23.9644      6.05535       2.2844
     28 1 0      27.7872      6.05535       2.2844
     29 1 0        31.61      6.05535       2.2844
     30 1 0      35.4329      6.05535       2.2844
     31 1 0      39.2557      6.05535       2.2844
     32 1 0      43.0785      6.05535       2.2844
     33 1 0      46.9014      6.05535       2.2844
     34 1 0      50.7242      6.05535       2.2844
     35 1 0       54.547      6.05535       2.2844
     36 1 0      58.3699      6.05535       2.2844
     37 1 0      62.1927      6.05535       2.2844
     38 1 0      66.0155      6.05535       2.2844
     39 1 0      69.8384      6.05535       2.2844
     40 1 0      73.6612      6.05535       2.2844
     41 1 0      1.02739      11.2908       2.2844
     42 1 0      4.85023      11.2908       2.2844
     43 1 0      8.67306      11.2908       2.2844
     44 1 0      12.4959      11.2908       2.2844
     45 1 0      16.3187      11.2908       2.2844
     46 1 0      20.1416      11.2908       2.2844
     47 1 0      23.9644      11.2908       2.2844
     48 1 0      27.7872      11.2908       2.2844
     49 1 0        31.61      11.2908       2.2844
     50 1 0      35.4329      11.2908       2.2844
     51 1 0      39.2557      11.2908       2.2844
     52 1 0      43.0785      11.2908       2.2844
     53 1 0      46.9014      11.2908       2.2844
     54 1 0      50.7242      11.2908       2.2844
     55 1 0       54.547      11.2908       2.2844
     56 1 0      58.3699      11.2908       2.2844
     57 1 0      62.1927      11.2908       2.2844
     58 1 0      66.0155      11.2908       2.2844
     59 1 0      69.8384      11.2908       2.2844
     60 1 0      73.6612      11.2908       2.2844
     61 1 0      1.02739       13.701       2.2844
     62 1 0      4.85023       13.701       2.2844
     63 1 0      8.67306       13.701       2.2844
     64 1 0      12.4959       13.701       2.2844
     65 1 0      16.3187       13.701       2.2844
     66 1 0      20.1416       13.701       2.2844
     67 1 0      23.9644       13.701       2.2844
     68 1 0      27.7872       13.701       2.2844
     69 1 0        31.61       13.701       2.2844
     70 1 0      35.4329       13.701       2.2844
     71 1 0      39.2557       13.701       2.2844
     72 1 0      43.0785       13.701       2.2844
     73 1 0      46.9014       13.701       2.2844
     74 1 0      50.7242       13.701       2.2844
     75 1 0       54.547       13.701       2.2844
     76 1 0      58.3699       13.701       2.2844
     77 1 0      62.1927       13.701       2.2844
     78 1 0      66.0155       13.701       2.2844
     79 1 0      69.8384       13.701       2.2844
     80 1 0      73.6612       13.701       2.2844
     81 1 0      1.02739      18.9364       2.2844
     82 1 0      4.85023      18.9364       2.2844
     83 1 0      8.67306      18.9364       2.2844
     84 1 0      12.4959      18.9364       2.2844
     85 1 0      16.3187      18.9364       2.2844
     86 1 0      20.1416      18.9364       2.2844
     87 1 0      23.9644      18.9364       2.2844
     88 1 0      27.7872      18.9364       2.2844
     89 1 0        31.61      18.9364       2.2844
     90 1 0      35.4329      18.9364       2.2844
     91 1 0      39.2557      18.9364       2.2844
     92 1 0      43.0785      18.9364       2.2844
     93 1 0      46.9014      18.9364       2.2844
     94 1 0      50.7242      18.9364       2.2844
     95 1 0       54.547      18.9364       2.2844
     96 1 0      58.3699      18.9364       2.2844
     97 1 0      62.1927      18.9364       2.2844
     98 1 0      66.0155      18.9364       2.2844
     99 1 0      69.8384      18.9364       2.2844
    100 1 0      73.6612      18.9364       2.2844
    101 1 0      1.02739      21.3467       2.2844
    102 1 0      4.85023      21.3467       2.2844
    103 1 0      8.67306      21.3467       2.2844
    104 1 0      12.4959      21.3467       2.2844
    105 1 0      16.3187      21.3467       2.2844
    106 1 0      20.1416      21.3467       2.2844
    107 1 0      23.9644      21.3467       2.2844
    108 1 0      27.7872      21.3467       2.2844
    109 1 0        31.61      21.3467       2.2844
    110 1 0      35.4329      21.3467       2.2844
    111 1 0      39.2557      21.3467       2.2844
    112 1 0      43.0785      21.3467       2.2844
    113 1 0      46.9014      21.3467       2.2844
    114 1 0      50.7242      21.3467       2.2844
    115 1 0       54.547      21.3467       2.2844
    116 1 0      58.3699      21.3467       2.2844
    117 1 0      62.1927      21.3467       2.2844
    118 1 0      66.0155      21.3467       2.2844
    119 1 0      69.8384      21.3467       2.2844
    120 1 0      73.6612      21.3467       2.2844
    121 1 0      1.02739      26.5821       2.2844
    122 1 0      4.85023      26.5821       2.2844
    123 1 0      8.67306      26.5821       2.2844
    124 1 0      12.4959      26.5821       2.2844
    125 1 0      16.3187      26.5821       2.2844
    126 1 0      20.1416      26.5821       2.2844
    127 1 0      23.9644      26.5821       2.2844
    128 1 0      27.7872      26.5821       2.2844
    129 1 0        31.61      26.5821       2.2844
    130 1 0      35.4329      26.5821       2.2844
    131 1 0      39.2557      26.5821       2.2844
    132 1 0      43.0785      26.5821       2.2844
    133 1 0      46.9014      26.5821       2.2844
    134 1 0      50.7242      26.5821       2.2844
    135 1 0       54.547      26.5821       2.2844
    136 1 0      58.3699      26.5821       2.2844
    137 1 0      62.1927      26.5821       2.2844
    138 1 0      66.0155      26.5821       2.2844
    139 1 0      69.8384      26.5821       2.2844
    140 1 0      73.6612      26.5821       2.2844
    141 1 0      1.02739      28.9923       2.2844
    142 1 0      4.85023      28.9923       2.2844
    143 1 0      8.67306      28.9923       2.2844
    144 1 0      12.4959      28.9923       2.2844
    145 1 0      16.3187      28.9923       2.2844
    146 1 0      20.1416      28.9923       2.2844
    147 1 0      23.9644      28.9923       2.2844
    148 1 0      27.7872      28.9923       2.2844
    149 1 0        31.61      28.9923       2.2844
    150 1 0      35.4329      28.9923       2.2844
    151 1 0      39.2557      28.9923       2.2844
    152 1 0      43.0785      28.9923       2.2844
    153 1 0      46.9014      28.9923       2.2844
    154 1 0      50.7242      28.9923       2.2844
    155 1 0       54.547      28.9923       2.2844
    156 1 0      58.3699      28.9923       2.2844
    157 1 0      62.1927      28.9923       2.2844
    158 1 0      66.0155      28.9923       2.2844
    159 1 0      69.8384      28.9923       2.2844
    160 1 0      73.6612      28.9923       2.2844
    161 1 0      1.02739      34.2278       2.2844
    162 1 0      4.85023      34.2278       2.2844
    163 1 0      8.67306      34.2278       2.2844
    164 1 0      12.4959      34.2278       2.2844
    165 1 0      16.3187      34.2278       2.2844
    166 1 0      20.1416      34.2278       2.2844
    167 1 0      23.9644      34.2278       2.2844
    168 1 0      27.7872      34.2278       2.2844
    169 1 0        31.61      34.2278       2.2844
    170 1 0      35.4329      34.2278       2.2844
    171 1 0      39.2557      34.2278       2.2844
    172 1 0      43.0785      34.2278       2.2844
    173 1 0      46.9014      34.2278       2.2844
    174 1 0      50.7242      34.2278       2.2844
    175 1 0       54.547      34.2278       2.2844
    176 1 0      58.3699      34.2278       2.2844
    177 1 0      62.1927      34.2278       2.2844
    178 1 0      66.0155      34.2278       2.2844
    179 1 0      69.8384      34.2278       2.2844
    180 1 0      73.6612      34.2278       2.2844
    181 1 0      1.02739       36.638       2.2844
    182 1 0      4.85023       36.638       2.2844
    183 1 0      8.67306       36.638       2.2844
    184 1 0      12.4959       36.638       2.2844
    185 1 0      16.3187       36.638       2.2844
    186 1 0      20.1416       36.638       2.2844
    187 1 0      23.9644       36.638       2.2844
    188 1 0      27.7872       36.638       2.2844
    189 1 0        31.61       36.638       2.2844
    190 1 0      35.4329       36.638       2.2844
    191 1 0      39.2557       36.638       2.2844
    192 1 0      43.0785       36.638       2.2844
    193 1 0      46.9014       36.638       2.2844
    194 1 0      50.7242       36.638       2.2844
    195 1 0       54.547       36.638       2.2844
    196 1 0      58.3699       36.638       2.2844
    197 1 0      62.1927       36.638       2.2844
    198 1 0      66.0155       36.638       2.2844
    199 1 0      69.8384       36.638       2.2844
    200 1 0      73.6612       36.638       2.2844
    201 1 0      1.02739      41.8734       2.2844
    202 1 0      4.85023      41.8734       2.2844
    203 1 0      8.67306      41.8734       2.2844
    204 1 0      12.4959      41.8734       2.2844
    205 1 0      16.3187      41.8734       2.2844
    206 1 0      20.1416      41.8734       2.2844
    207 1 0      23.9644      41.8734       2.2844
    208 1 0      27.7872      41.8734       2.2844
    209 1 0        31.61      41.8734       2.2844
    210 1 0      35.4329      41.8734       2.2844
    211 1 0      39.2557      41.8734       2.2844
    212 1 0      43.0785      41.8734       2.2844
    213 1 0      46.9014      41.8734       2.2844
    214 1 0      50.7242      41.8734       2.2844
    215 1 0       54.547      41.8734       2.2844
    216 1 0      58.3699      41.8734       2.2844
    217 1 0      62.1927      41.8734       2.2844
    218 1 0      66.0155      41.8734       2.2844
    219 1 0      69.8384      41.8734       2.2844
    220 1 0      73.6612      41.8734       2.2844
    221 1 0      1.02739      44.2837       2.2844
    222 1 0      4.85023      44.2837       2.2844
    223 1 0      8.67306      44.2837       2.2844
    224 1 0      12.4959      44.2837       2.2844
    225 1 0      16.3187      44.2837       2.2844
    226 1 0      20.1416      44.2837       2.2844
    227 1 0      23.9644      44.2837       2.2844
    228 1 0      27.7872      44.2837       2.2844
    229 1 0        31.61      44.2837       2.2844
    230 1 0      35.4329      44.2837       2.2844
    231 1 0      39.2557      44.2837       2.2844
    232 1 0      43.0785      44.2837       2.2844
    233 1 0      46.9014      44.2837       2.2844
    234 1 0      50.7242      44.2837       2.2844
    235 1 0       54.547      44.2837       2.2844
    236 1 0      58.3699      44.2837       2.2844
    237 1 0      62.1927      44.2837       2.2844
    238 1 0      66.0155      44.2837       2.2844
    239 1 0      69.8384      44.2837       2.2844
    240 1 0      73.6612      44.2837       2.2844
    241 1 0      1.02739      49.5191       2.2844
    242 1 0      4.85023      49.5191       2.2844
    243 1 0      8.67306      49.5191       2.2844
    244 1 0      12.4959      49.5191       2.2844
    245 1 0      16.3187      49.5191       2.2844
    246 1 0      20.1416      49.5191       2.2844
    247 1 0      23.9644      49.5191       2.2844
    248 1 0      27.7872      49.5191       2.2844
    249 1 0        31.61      49.5191       2.2844
    250 1 0      35.4329      49.5191       2.2844
    251 1 0      39.2557      49.5191       2.2844
    252 1 0      43.0785      49.5191       2.2844
    253 1 0      46.9014      49.5191       2.2844
    254 1 0      50.7242      49.5191       2.2844
    255 1 0       54.547      49.5191       2.2844
    256 1 0      58.3699      49.5191       2.2844
    257 1 0      62.1927      49.5191       2.2844
    258 1 0      66.0155      49.5191       2.2844
    259 1 0      69.8384      49.5191       2.2844
    260 1 0      73.6612      49.5191       2.2844
    261 1 0      1.02739      51.9293       2.2844
    262 1 0      4.85023      51.9293       2.2844
    263 1 0      8.67306      51.9293       2.2844
    264 1 0      12.4959      51.9293       2.2844
    265 1 0      16.3187      51.9293       2.2844
    266 1 0      20.1416      51.9293       2.2844
    267 1 0      23.9644      51.9293       2.2844
    268 1 0      27.7872      51.9293       2.2844
    269 1 0        31.61      51.9293       2.2844
    270 1 0      35.4329      51.9293       2.2844
    271 1 0      39.2557      51.9293       2.2844
    272 1 0      43.0785      51.9293       2.2844
    273 1 0      46.9014      51.9293       2.2844
    274 1 0      50.7242      51.9293       2.2844
    275 1 0       54.547      51.9293       2.2844
    276 1 0      58.3699      51.9293       2.2844
    277 1 0      62.1927      51.9293       2.2844
    278 1 0      66.0155      51.9293       2.2844
    279 1 0      69.8384      51.9293       2.2844
    280 1 0      73.6612      51.9293       2.2844
    281 1 0      1.02739      57.1647       2.2844
    282 1 0      4.85023      57.1647       2.2844
    283 1 0      8.67306      57.1647       2.2844
    284 1 0      12.4959      57.1647       2.2844
    285 1 0      16.3187      57.1647       2.2844
    286 1 0      20.1416      57.1647       2.2844
    287 1 0      23.9644      57.1647       2.2844
    288 1 0      27.7872      57.1647       2.2844
    289 1 0        31.61      57.1647       2.2844
    290 1 0      35.4329      57.1647       2.2844
    291 1 0      39.2557      57.1647       2.2844
    292 1 0      43.0785      57.1647       2.2844
    293 1 0      46.9014      57.1647       2.2844
    294 1 0      50.7242      57.1647       2.2844
    295 1 0       54.547      57.1647       2.2844
    296 1 0      58.3699      57.1647       2.2844
    297 1 0      62.1927      57.1647       2.2844
    298 1 0      66.0155      57.1647       2.2844
    299 1 0      69.8384      57.1647       2.2844
    300 1 0      73.6612      57.1647       2.2844
    301 1 0      1.02739       59.575       2.2844
    302 1 0      4.85023       59.575       2.2844
    303 1 0      8.67306       59.575       2.2844
    304 1 0      12.4959       59.575       2.2844
    305 1 0      16.3187       59.575       2.2844
    306 1 0      20.1416       59.575       2.2844
    307 1 0      23.9644       59.575       2.2844
    308 1 0      27.7872       59.575       2.2844
    309 1 0        31.61       59.575       2.2844
    310 1 0      35.4329       59.575       2.2844
    311 1 0      39.2557       59.575       2.2844
    312 1 0      43.0785       59.575       2.2844
    313 1 0      46.9014       59.575       2.2844
    314 1 0      50.7242       59.575       2.2844
    315 1 0       54.547       59.575       2.2844
    316 1 0      58.3699       59.575       2.2844
    317 1 0      62.1927       59.575       2.2844
    318 1 0      66.0155       59.575       2.2844
    319 1 0      69.8384       59.575       2.2844
    320 1 0      73.6612       59.575       2.2844
    321 1 0      1.02739      64.8104       2.2844
    322 1 0      4.85023      64.8104       2.2844
    323 1 0      8.67306      64.8104       2.2844
    324 1 0      12.4959      64.8104       2.2844
    325 1 0      16.3187      64.8104       2.2844
    326 1 0      20.1416      64.8104       2.2844
    327 1 0      23.9644      64.8104       2.2844
    328 1 0      27.7872      64.8104       2.2844
    329 1 0        31.61      64.8104       2.2844
    330 1 0      35.4329      64.8104       2.2844
    331 1 0      39.2557      64.8104       2.2844
    332 1 0      43.0785      64.8104       2.2844
    333 1 0      46.9014      64.8104       2.2844
    334 1 0      50.7242      64.8104       2.2844
    335 1 0       54.547      64.8104       2.2844
    336 1 0      58.3699      64.8104       2.2844
    337 1 0      62.1927      64.8104       2.2844
    338 1 0      66.0155      64.8104       2.2844
    339 1 0      69.8384      64.8104       2.2844
    340 1 0      73.6612      64.8104       2.2844
    341 1 0      1.02739      67.2207       2.2844
    342 1 0      4.85023      67.2207       2.2844
    343 1 0      8.67306      67.2207       2.2844
    344 1 0      12.4959      67.2207       2.2844
    345 1 0      16.3187      67.2207       2.2844
    346 1 0      20.1416      67.2207       2.2844
    347 1 0      23.9644      67.2207       2.2844
    348 1 0      27.7872      67.2207       2.2844
    349 1 0        31.61      67.2207       2.2844
    350 1 0      35.4329      67.2207       2.2844
    351 1 0      39.2557      67.2207       2.2844
    352 1 0      43.0785      67.2207       2.2844
    353 1 0      46.9014      67.2207       2.2844
    354 1 0      50.7242      67.2207       2.2844
    355 1 0       54.547      67.2207       2.2844
    356 1 0      58.3699      67.2207       2.2844
    357 1 0      62.1927      67.2207       2.2844
    358 1 0      66.0155      67.2207       2.2844
    359 1 0      69.8384      67.2207       2.2844
    360 1 0      73.6612      67.2207       2.2844
    361 1 0      1.02739      72.4561       2.2844
    362 1 0      4.85023      72.4561       2.2844
    363 1 0      8.67306      72.4561       2.2844
    364 1 0      12.4959      72.4561       2.2844
    365 1 0      16.3187      72.4561       2.2844
    366 1 0      20.1416      72.4561       2.2844
    367 1 0      23.9644      72.4561       2.2844
    368 1 0      27.7872      72.4561       2.2844
    369 1 0        31.61      72.4561       2.2844
    370 1 0      35.4329      72.4561       2.2844
    371 1 0      39.2557      72.4561       2.2844
    372 1 0      43.0785      72.4561       2.2844
    373 1 0      46.9014      72.4561       2.2844
    374 1 0      50.7242      72.4561       2.2844
    375 1 0       54.547      72.4561       2.2844
    376 1 0      58.3699      72.4561       2.2844
    377 1 0      62.1927      72.4561       2.2844
    378 1 0      66.0155      72.4561       2.2844
    379 1 0      69.8384      72.4561       2.2844
    380 1 0      73.6612      72.4561       2.2844
    381 1 0      1.02739      74.8663       2.2844
    382 1 0      4.85023      74.8663       2.2844
    383 1 0      8.67306      74.8663       2.2844
    384 1 0      12.4959      74.8663       2.2844
    385 1 0      16.3187      74.8663       2.2844
    386 1 0      20.1416      74.8663       2.2844
    387 1 0      23.9644      74.8663       2.2844
    388 1 0      27.7872      74.8663       2.2844
    389 1 0        31.61      74.8663       2.2844
    390 1 0      35.4329      74.8663       2.2844
    391 1 0      39.2557      74.8663       2.2844
    392 1 0      43.0785      74.8663       2.2844
    393 1 0      46.9014      74.8663       2.2844
    394 1 0      50.7242      74.8663       2.2844
    395 1 0       54.547      74.8663       2.2844
    396 1 0      58.3699      74.8663       2.2844
    397 1 0      62.1927      74.8663       2.2844
    398 1 0      66.0155      74.8663       2.2844
    399 1 0      69.8384      74.8663       2.2844
    400 1 0      73.6612      74.8663       2.2844
    401 1 0      2.93881      3.11864      3.56537
    402 1 0      6.76164      3.11864      3.56537
    403 1 0      10.5845      3.11864      3.56537
    404 1 0      14.4073      3.11864      3.56537
    405 1 0      18.2301      3.11864      3.56537
    406 1 0       22.053      3.11864      3.56537
    407 1 0      25.8758      3.11864      3.56537
    408 1 0      29.6986      3.11864      3.56537
    409 1 0      33.5215      3.11864      3.56537
    410 1 0      37.3443      3.11864      3.56537
    411 1 0      41.1671      3.11864      3.56537
    412 1 0        44.99      3.11864      3.56537
    413 1 0      48.8128      3.11864      3.56537
    414 1 0      52.6356      3.11864      3.56537
    415 1 0      56.4584      3.11864      3.56537
    416 1 0      60.2813      3.11864      3.56537
    417 1 0      64.1041      3.11864      3.56537
    418 1 0      67.9269      3.11864      3.56537
    419 1 0      71.7498      3.11864      3.56537
    420 1 0      75.5726      3.11864      3.56537
    421 1 0      2.93881      6.58182      3.56537
    422 1 0      6.76164      6.58182      3.56537
    423 1 0      10.5845      6.58182      3.56537
    424 1 0      14.4073      6.58182      3.56537
    425 1 0      18.2301      6.58182      3.56537
    426 1 0       22.053      6.58182      3.56537
    427 1 0      25.8758      6.58182      3.56537
    428 1 0      29.6986      6.58182      3.56537
    429 1 0      33.5215      6.58182      3.56537
    430 1 0      37.3443      6.58182      3.56537
    431 1 0      41.1671      6.58182      3.56537
    432 1 0        44.99      6.58182      3.56537
    433 1 0      48.8128      6.58182      3.56537
    434 1 0      52.6356      6.58182      3.56537
    435 1 0      56.4584      6.58182      3.56537
    436 1 0      60.2813      6.58182      3.56537
    437 1 0      64.1041      6.58182      3.56537
    438 1 0      67.9269      6.58182      3.56537
    439 1 0      71.7498      6.58182      3.56537
    440 1 0      75.5726      6.58182      3.56537
    441 1 0      2.93881      10.7643      3.56537
    442 1 0      6.76164      10.7643      3.56537
    443 1 0      10.5845      10.7643      3.56537
    444 1 0      14.4073      10.7643      3.56537
    445 1 0      18.2301      10.7643      3.56537
    446 1 0       22.053      10.7643      3.56537
    447 1 0      25.8758      10.7643      3.56537
    448 1 0      29.6986      10.7643      3.56537
    449 1 0      33.5215      10.7643      3.56537
    450 1 0      37.3443      10.7643      3.56537
    451 1 0      41.1671      10.7643      3.56537
    452 1 0        44.99      10.7643      3.56537
    453 1 0      48.8128      10.7643      3.56537
    454 1 0      52.6356      10.7643      3.56537
    455 1 0      56.4584      10.7643      3.56537
    456 1 0      60.2813      10.7643      3.56537
    457 1 0      64.1041      10.7643      3.56537
    458 1 0      67.9269      10.7643      3.56537
    459 1 0      71.7498      10.7643      3.56537
    460 1 0      75.5726      10.7643      3.56537
    461 1 0      2.93881      14.2275      3.56537
    462 1 0      6.76164      14.2275      3.56537
    463 1 0      10.5845      14.2275      3.56537
    464 1 0      14.4073      14.2275      3.56537
    465 1 0      18.2301      14.2275      3.56537
    466 1 0       22.053      14.2275      3.56537
    467 1 0      25.8758      14.2275      3.56537
    468 1 0      29.6986      14.2275      3.56537
    469 1 0      33.5215      14.2275      3.56537
    470 1 0      37.3443      14.2275      3.56537
    471 1 0      41.1671      14.2275      3.56537
    472 1 0        44.99      14.2275      3.56537
    473 1 0      48.8128      14.2275      3.56537
    474 1 0      52.6356      14.2275      3.56537
    475 1 0      56.4584      14.2275      3.56537
    476 1 0      60.2813      14.2275      3.56537
    477 1 0      64.1041      14.2275      3.56537
    478 1 0      67.9269      14.2275      3.56537
    479 1 0      71.7498      14.2275      3.56537
    480 1 0      75.5726      14.2275      3.56537
    481 1 0      2.93881        18.41      3.56537
    482 1 0      6.76164        18.41      3.56537
    483 1 0      10.5845        18.41      3.56537
    484 1 0      14.4073        18.41      3.56537
    485 1 0      18.2301        18.41      3.56537
    486 1 0       22.053        18.41      3.56537
    487 1 0      25.8758        18.41      3.56537
    488 1 0      29.6986        18.41      3.56537
    489 1 0      33.5215        18.41      3.56537
    490 1 0      37.3443        18.41      3.56537
    491 1 0      41.1671        18.41      3.56537
    492 1 0        44.99        18.41      3.56537
    493 1 0      48.8128        18.41      3.56537
    494 1 0      52.6356        18.41      3.56537
    495 1 0      56.4584        18.41      3.56537
    496 1 0      60.2813        18.41      3.56537
    497 1 0      64.1041        18.41      3.56537
    498 1 0      67.9269        18.41      3.56537
    499 1 0      71.7498        18.41      3.56537
    500 1 0      75.5726        18.41      3.56537
    501 1 0      2.93881      21.8731      3.56537
    502 1 0      6.76164      21.8731      3.56537
    503 1 0      10.5845      21.8731      3.56537
    504 1 0      14.4073      21.8731      3.56537
    505 1 0      18.2301      21.8731      3.56537
    506 1 0       22.053      21.8731      3.56537
    507 1 0      25.8758      21.8731      3.56537
    508 1 0      29.6986      21.8731      3.56537
    509 1 0      33.5215      21.8731      3.56537
    510 1 0      37.3443      21.8731      3.56537
    511 1 0      41.1671      21.8731      3.56537
    512 1 0        44.99      21.8731      3.56537
    513 1 0      48.8128      21.8731      3.56537
    514 1 0      52.6356      21.8731      3.56537
    515 1 0      56.4584      21.8731      3.56537
    516 1 0      60.2813      21.8731      3.56537
    517 1 0      64.1041      21.8731      3.56537
    518 1 0      67.9269      21.8731      3.56537
    519 1 0      71.7498      21.8731      3.56537
    520 1 0      75.5726      21.8731      3.56537
    521 1 0      2.93881      26.0556      3.56537
    522 1 0      6.76164      26.0556      3.56537
    523 1 0      10.5845      26.0556      3.56537
    524 1 0      14.4073      26.0556      3.56537
    525 1 0      18.2301      26.0556      3.56537
    526 1 0       22.053      26.0556      3.56537
    527 1 0      25.8758      26.0556      3.56537
    528 1 0      29.6986      26.0556      3.56537
    529 1 0      33.5215      26.0556      3.56537
    530 1 0      37.3443      26.0556      3.56537
    531 1 0      41.1671      26.0556      3.56537
    532 1 0        44.99      26.0556      3.56537
    533 1 0      48.8128      26.0556      3.56537
    534 1 0      52.6356      26.0556      3.56537
    535 1 0      56.4584      26.0556      3.56537
    536 1 0      60.2813      26.0556      3.56537
    537 1 0      64.1041      26.0556      3.56537
    538 1 0      67.9269      26.0556      3.56537
    539 1 0      71.7498      26.0556      3.56537
    540 1 0      75.5726      26.0556      3.56537
    541 1 0      2.93881      29.5188      3.56537
    542 1 0      6.76164      29.5188      3.56537
    543 1 0      10.5845      29.5188      3.56537
    544 1 0      14.4073      29.5188      3.56537
    545 1 0      18.2301      29.5188      3.56537
    546 1 0       22.053      29.5188      3.56537
    547 1 0      25.8758      29.5188      3.56537
    548 1 0      29.6986      29.5188      3.56537
    549 1 0      33.5215      29.5188      3.56537
    550 1 0      37.3443      29.5188      3.56537
    551 1 0      41.1671      29.5188      3.56537
    552 1 0        44.99      29.5188      3.56537
    553 1 0      48.8128      29.5188      3.56537
    554 1 0      52.6356      29.5188      3.56537
    555 1 0      56.4584      29.5188      3.56537
    556 1 0      60.2813      29.5188      3.56537
    557 1 0      64.1041      29.5188      3.56537
    558 1 0      67.9269      29.5188      3.56537
    559 1 0      71.7498      29.5188      3.56537
    560 1 0      75.5726      29.5188      3.56537
    561 1 0      2.93881      33.7013      3.56537
    562 1 0      6.76164      33.7013      3.56537
    563 1 0      10.5845      33.7013      3.56537
    564 1 0      14.4073      33.7013      3.56537
    565 1 0      18.2301      33.7013      3.56537
    566 1 0       22.053      33.7013      3.56537
    567 1 0      25.8758      33.7013      3.56537
    568 1 0      29.6986      33.7013      3.56537
    569 1 0      33.5215      33.7013      3.56537
    570 1 0      37.3443      33.7013      3.56537
    571 1 0      41.1671      33.7013      3.56537
    572 1 0        44.99      33.7013      3.56537
    573 1 0      48.8128      33.7013      3.56537
    574 1 0      52.6356      33.7013      3.56537
    575 1 0      56.4584      33.7013      3.56537
    576 1 0      60.2813      33.7013      3.56537
    577 1 0      64.1041      33.7013      3.56537
    578 1 0      67.9269      33.7013      3.56537
    579 1 0      71.7498      33.7013      3.56537
    580 1 0      75.5726      33.7013      3.56537
    581 1 0      2.93881      37.1645      3.56537
    582 1 0      6.76164      37.1645      3.56537
    583 1 0      10.5845      37.1645      3.56537
    584 1 0      14.4073      37.1645      3.56537
    585 1 0      18.2301      37.1645      3.56537