# LAMMPS data file written by Ovito Basic 3.0.0-dev791
60 atoms
1 atom types
0.0 14.2957000732 xlo xhi
0.0 14.2957000732 ylo yhi
0.0 14.2957000732 zlo zhi

Atoms  # charge

1 1 0.0 9.009709 4.631325 8.824787
2 1 0.0 4.631325 8.824787 9.009709
3 1 0.0 8.824787 9.009709 4.631325
4 1 0.0 5.285992 9.664375 5.470913
5 1 0.0 9.664375 5.470913 5.285992
6 1 0.0 5.470913 5.285992 9.664375
7 1 0.0 9.266248 4.311915 7.430527
8 1 0.0 4.311915 7.430527 9.266248
9 1 0.0 7.430527 9.266248 4.311915
10 1 0.0 5.029452 9.983786 6.865172
11 1 0.0 9.983786 6.865172 5.029452
12 1 0.0 6.865172 5.029452 9.983786
13 1 0.0 10.025727 9.060971 8.006838
14 1 0.0 9.060971 8.006838 10.025727
15 1 0.0 8.006838 10.025727 9.060971
16 1 0.0 4.269972 5.23473 6.288861
17 1 0.0 5.23473 6.288861 4.269972
18 1 0.0 6.288861 4.269972 5.23473
19 1 0.0 10.574461 7.423105 6.235376
20 1 0.0 7.423105 6.235376 10.574461
21 1 0.0 6.235376 10.574461 7.423105
22 1 0.0 3.72124 6.872594 8.060323
23 1 0.0 6.872594 8.060323 3.72124
24 1 0.0 8.060323 3.72124 6.872594
25 1 0.0 10.286061 8.741264 6.612566
26 1 0.0 8.741264 6.612566 10.286061
27 1 0.0 6.612566 10.286061 8.741264
28 1 0.0 4.00964 5.554436 7.683133
29 1 0.0 5.554436 7.683133 4.00964
30 1 0.0 7.683133 4.00964 5.554436
31 1 0.0 9.548508 5.794382 9.392645
32 1 0.0 5.794382 9.392645 9.548508
33 1 0.0 9.392645 9.548508 5.794382
34 1 0.0 4.747192 8.501317 4.903053
35 1 0.0 8.501317 4.903053 4.747192
36 1 0.0 4.903053 4.747192 8.501317
37 1 0.0 10.051556 5.169455 6.65018
38 1 0.0 5.169455 6.65018 10.051556
39 1 0.0 6.65018 10.051556 5.169455
40 1 0.0 4.244147 9.126245 7.645518
41 1 0.0 9.126245 7.645518 4.244147
42 1 0.0 7.645518 4.244147 9.126245
43 1 0.0 10.065054 8.050444 8.975352
44 1 0.0 8.050444 8.975352 10.065054
45 1 0.0 8.975352 10.065054 8.050444
46 1 0.0 4.230646 6.245256 5.320348
47 1 0.0 6.245256 5.320348 4.230646
48 1 0.0 5.320348 4.230646 6.245256
49 1 0.0 10.610741 6.376622 7.239204
50 1 0.0 6.376622 7.239204 10.610741
51 1 0.0 7.239204 10.610741 6.376622
52 1 0.0 3.684959 7.919078 7.056496
53 1 0.0 7.919078 7.056496 3.684959
54 1 0.0 7.056496 3.684959 7.919078
55 1 0.0 10.364281 6.683725 8.582717
56 1 0.0 6.683725 8.582717 10.364281
57 1 0.0 8.582717 10.364281 6.683725
58 1 0.0 3.931419 7.611974 5.712981
59 1 0.0 7.611974 5.712981 3.931419
60 1 0.0 5.712981 3.931419 7.611974
