# LAMMPS data file written by Ovito Basic 3.0.0-dev791
792 atoms
2 atom types
0.0 20.0821971893 xlo xhi
0.0 20.0821971893 ylo yhi
0.0 22.720413208 zlo zhi

Atoms  # charge

1 1 0.0 0.0 0.0 22.010398865
2 1 0.0 0.0 0.0 19.170345306
3 1 0.0 0.0 0.0 16.330295563
4 1 0.0 0.0 0.0 13.490243912
5 1 0.0 17.270687103 0.401643902 22.010398865
6 1 0.0 17.270687103 0.401643902 19.170345306
7 1 0.0 17.270687103 0.401643902 16.330295563
8 1 0.0 17.270687103 0.401643902 13.490243912
9 1 0.0 17.672330856 3.213151217 22.010398865
10 1 0.0 17.672330856 3.213151217 19.170345306
11 1 0.0 17.672330856 3.213151217 16.330295563
12 1 0.0 17.672330856 3.213151217 13.490243912
13 1 0.0 18.073976517 6.02465868 22.010398865
14 1 0.0 18.073976517 6.02465868 19.170345306
15 1 0.0 18.073976517 6.02465868 16.330295563
16 1 0.0 18.073976517 6.02465868 13.490243912
17 1 0.0 18.47562027 8.836165428 22.010398865
18 1 0.0 18.47562027 8.836165428 19.170345306
19 1 0.0 18.47562027 8.836165428 16.330295563
20 1 0.0 18.47562027 8.836165428 13.490243912
21 1 0.0 18.87726593 11.647672653 22.010398865
22 1 0.0 18.87726593 11.647672653 19.170345306
23 1 0.0 18.87726593 11.647672653 16.330295563
24 1 0.0 18.87726593 11.647672653 13.490243912
25 1 0.0 19.278909683 14.459181786 22.010398865
26 1 0.0 19.278909683 14.459181786 19.170345306
27 1 0.0 19.278909683 14.459181786 16.330295563
28 1 0.0 19.278909683 14.459181786 13.490243912
29 1 0.0 19.680551529 17.270687103 22.010398865
30 1 0.0 19.680551529 17.270687103 19.170345306
31 1 0.0 19.680551529 17.270687103 16.330295563
32 1 0.0 19.680551529 17.270687103 13.490243912
33 1 0.0 0.401643902 2.811507225 22.010398865
34 1 0.0 0.401643902 2.811507225 19.170345306
35 1 0.0 0.401643902 2.811507225 16.330295563
36 1 0.0 0.401643902 2.811507225 13.490243912
37 1 0.0 0.803287804 5.62301445 22.010398865
38 1 0.0 0.803287804 5.62301445 19.170345306
39 1 0.0 0.803287804 5.62301445 16.330295563
40 1 0.0 0.803287804 5.62301445 13.490243912
41 1 0.0 1.204931855 8.434521675 22.010398865
42 1 0.0 1.204931855 8.434521675 19.170345306
43 1 0.0 1.204931855 8.434521675 16.330295563
44 1 0.0 1.204931855 8.434521675 13.490243912
45 1 0.0 1.606575608 11.2460289 22.010398865
46 1 0.0 1.606575608 11.2460289 19.170345306
47 1 0.0 1.606575608 11.2460289 16.330295563
48 1 0.0 1.606575608 11.2460289 13.490243912
49 1 0.0 2.008219481 14.057536125 22.010398865
50 1 0.0 2.008219481 14.057536125 19.170345306
51 1 0.0 2.008219481 14.057536125 16.330295563
52 1 0.0 2.008219481 14.057536125 13.490243912
53 1 0.0 2.40986371 16.86904335 22.010398865
54 1 0.0 2.40986371 16.86904335 19.170345306
55 1 0.0 2.40986371 16.86904335 16.330295563
56 1 0.0 2.40986371 16.86904335 13.490243912
57 1 0.0 2.811507225 19.680551529 22.010398865
58 1 0.0 2.811507225 19.680551529 19.170345306
59 1 0.0 2.811507225 19.680551529 16.330295563
60 1 0.0 2.811507225 19.680551529 13.490243912
61 1 0.0 3.213151217 2.40986371 22.010398865
62 1 0.0 3.213151217 2.40986371 19.170345306
63 1 0.0 3.213151217 2.40986371 16.330295563
64 1 0.0 3.213151217 2.40986371 13.490243912
65 1 0.0 3.614795446 5.221370697 22.010398865
66 1 0.0 3.614795446 5.221370697 19.170345306
67 1 0.0 3.614795446 5.221370697 16.330295563
68 1 0.0 3.614795446 5.221370697 13.490243912
69 1 0.0 4.016438961 8.032877922 22.010398865
70 1 0.0 4.016438961 8.032877922 19.170345306
71 1 0.0 4.016438961 8.032877922 16.330295563
72 1 0.0 4.016438961 8.032877922 13.490243912
73 1 0.0 4.418082714 10.844386101 22.010398865
74 1 0.0 4.418082714 10.844386101 19.170345306
75 1 0.0 4.418082714 10.844386101 16.330295563
76 1 0.0 4.418082714 10.844386101 13.490243912
77 1 0.0 4.819727421 13.655893326 22.010398865
78 1 0.0 4.819727421 13.655893326 19.170345306
79 1 0.0 4.819727421 13.655893326 16.330295563
80 1 0.0 4.819727421 13.655893326 13.490243912
81 1 0.0 5.221370697 16.467399597 22.010398865
82 1 0.0 5.221370697 16.467399597 19.170345306
83 1 0.0 5.221370697 16.467399597 16.330295563
84 1 0.0 5.221370697 16.467399597 13.490243912
85 1 0.0 5.62301445 19.278909683 22.010398865
86 1 0.0 5.62301445 19.278909683 19.170345306
87 1 0.0 5.62301445 19.278909683 16.330295563
88 1 0.0 5.62301445 19.278909683 13.490243912
89 1 0.0 6.02465868 2.008219481 22.010398865
90 1 0.0 6.02465868 2.008219481 19.170345306
91 1 0.0 6.02465868 2.008219481 16.330295563
92 1 0.0 6.02465868 2.008219481 13.490243912
93 1 0.0 6.426302433 4.819727421 22.010398865
94 1 0.0 6.426302433 4.819727421 19.170345306
95 1 0.0 6.426302433 4.819727421 16.330295563
96 1 0.0 6.426302433 4.819727421 13.490243912
97 1 0.0 6.827946663 7.631234169 22.010398865
98 1 0.0 6.827946663 7.631234169 19.170345306
99 1 0.0 6.827946663 7.631234169 16.330295563
100 1 0.0 6.827946663 7.631234169 13.490243912
101 1 0.0 7.229590893 10.442741394 22.010398865
102 1 0.0 7.229590893 10.442741394 19.170345306
103 1 0.0 7.229590893 10.442741394 16.330295563
104 1 0.0 7.229590893 10.442741394 13.490243912
105 1 0.0 7.631234169 13.254249573 22.010398865
106 1 0.0 7.631234169 13.254249573 19.170345306
107 1 0.0 7.631234169 13.254249573 16.330295563
108 1 0.0 7.631234169 13.254249573 13.490243912
109 1 0.0 8.032877922 16.065755844 22.010398865
110 1 0.0 8.032877922 16.065755844 19.170345306
111 1 0.0 8.032877922 16.065755844 16.330295563
112 1 0.0 8.032877922 16.065755844 13.490243912
113 1 0.0 8.434521675 18.87726593 22.010398865
114 1 0.0 8.434521675 18.87726593 19.170345306
115 1 0.0 8.434521675 18.87726593 16.330295563
116 1 0.0 8.434521675 18.87726593 13.490243912
117 1 0.0 8.836165428 1.606575608 22.010398865
118 1 0.0 8.836165428 1.606575608 19.170345306
119 1 0.0 8.836165428 1.606575608 16.330295563
120 1 0.0 8.836165428 1.606575608 13.490243912
121 1 0.0 9.237810135 4.418082714 22.010398865
122 1 0.0 9.237810135 4.418082714 19.170345306
123 1 0.0 9.237810135 4.418082714 16.330295563
124 1 0.0 9.237810135 4.418082714 13.490243912
125 1 0.0 9.639454842 7.229590893 22.010398865
126 1 0.0 9.639454842 7.229590893 19.170345306
127 1 0.0 9.639454842 7.229590893 16.330295563
128 1 0.0 9.639454842 7.229590893 13.490243912
129 1 0.0 10.041097641 10.041097641 22.010398865
130 1 0.0 10.041097641 10.041097641 19.170345306
131 1 0.0 10.041097641 10.041097641 16.330295563
132 1 0.0 10.041097641 10.041097641 13.490243912
133 1 0.0 10.442741394 12.852604866 22.010398865
134 1 0.0 10.442741394 12.852604866 19.170345306
135 1 0.0 10.442741394 12.852604866 16.330295563
136 1 0.0 10.442741394 12.852604866 13.490243912
137 1 0.0 10.844386101 15.664112091 22.010398865
138 1 0.0 10.844386101 15.664112091 19.170345306
139 1 0.0 10.844386101 15.664112091 16.330295563
140 1 0.0 10.844386101 15.664112091 13.490243912
141 1 0.0 11.2460289 18.47562027 22.010398865
142 1 0.0 11.2460289 18.47562027 19.170345306
143 1 0.0 11.2460289 18.47562027 16.330295563
144 1 0.0 11.2460289 18.47562027 13.490243912
145 1 0.0 11.647672653 1.204931855 22.010398865
146 1 0.0 11.647672653 1.204931855 19.170345306
147 1 0.0 11.647672653 1.204931855 16.330295563
148 1 0.0 11.647672653 1.204931855 13.490243912
149 1 0.0 12.04931736 4.016438961 22.010398865
150 1 0.0 12.04931736 4.016438961 19.170345306
151 1 0.0 12.04931736 4.016438961 16.330295563
152 1 0.0 12.04931736 4.016438961 13.490243912
153 1 0.0 12.450961113 6.827946663 22.010398865
154 1 0.0 12.450961113 6.827946663 19.170345306
155 1 0.0 12.450961113 6.827946663 16.330295563
156 1 0.0 12.450961113 6.827946663 13.490243912
157 1 0.0 12.852604866 9.639454842 22.010398865
158 1 0.0 12.852604866 9.639454842 19.170345306
159 1 0.0 12.852604866 9.639454842 16.330295563
160 1 0.0 12.852604866 9.639454842 13.490243912
161 1 0.0 13.254249573 12.450961113 22.010398865
162 1 0.0 13.254249573 12.450961113 19.170345306
163 1 0.0 13.254249573 12.450961113 16.330295563
164 1 0.0 13.254249573 12.450961113 13.490243912
165 1 0.0 13.655893326 15.262468338 22.010398865
166 1 0.0 13.655893326 15.262468338 19.170345306
167 1 0.0 13.655893326 15.262468338 16.330295563
168 1 0.0 13.655893326 15.262468338 13.490243912
169 1 0.0 14.057536125 18.073976517 22.010398865
170 1 0.0 14.057536125 18.073976517 19.170345306
171 1 0.0 14.057536125 18.073976517 16.330295563
172 1 0.0 14.057536125 18.073976517 13.490243912
173 1 0.0 14.459181786 0.803287804 22.010398865
174 1 0.0 14.459181786 0.803287804 19.170345306
175 1 0.0 14.459181786 0.803287804 16.330295563
176 1 0.0 14.459181786 0.803287804 13.490243912
177 1 0.0 14.860824585 3.614795446 22.010398865
178 1 0.0 14.860824585 3.614795446 19.170345306
179 1 0.0 14.860824585 3.614795446 16.330295563
180 1 0.0 14.860824585 3.614795446 13.490243912
181 1 0.0 15.262468338 6.426302433 22.010398865
182 1 0.0 15.262468338 6.426302433 19.170345306
183 1 0.0 15.262468338 6.426302433 16.330295563
184 1 0.0 15.262468338 6.426302433 13.490243912
185 1 0.0 15.664112091 9.237810135 22.010398865
186 1 0.0 15.664112091 9.237810135 19.170345306
187 1 0.0 15.664112091 9.237810135 16.330295563
188 1 0.0 15.664112091 9.237810135 13.490243912
189 1 0.0 16.065755844 12.04931736 22.010398865
190 1 0.0 16.065755844 12.04931736 19.170345306
191 1 0.0 16.065755844 12.04931736 16.330295563
192 1 0.0 16.065755844 12.04931736 13.490243912
193 1 0.0 16.467399597 14.860824585 22.010398865
194 1 0.0 16.467399597 14.860824585 19.170345306
195 1 0.0 16.467399597 14.860824585 16.330295563
196 1 0.0 16.467399597 14.860824585 13.490243912
197 1 0.0 16.86904335 17.672330856 22.010398865
198 1 0.0 16.86904335 17.672330856 19.170345306
199 1 0.0 16.86904335 17.672330856 16.330295563
200 1 0.0 16.86904335 17.672330856 13.490243912
201 1 0.0 1.606575608 1.204931855 20.590373993
202 1 0.0 1.606575608 1.204931855 17.750322342
203 1 0.0 1.606575608 1.204931855 14.910269737
204 1 0.0 1.606575608 1.204931855 12.070218086
205 1 0.0 18.87726593 1.606575608 20.590373993
206 1 0.0 18.87726593 1.606575608 17.750322342
207 1 0.0 18.87726593 1.606575608 14.910269737
208 1 0.0 18.87726593 1.606575608 12.070218086
209 1 0.0 19.278909683 4.418082714 20.590373993
210 1 0.0 19.278909683 4.418082714 17.750322342
211 1 0.0 19.278909683 4.418082714 14.910269737
212 1 0.0 19.278909683 4.418082714 12.070218086
213 1 0.0 19.680549622 7.229590893 20.590373993
214 1 0.0 19.680549622 7.229590893 17.750322342
215 1 0.0 19.680549622 7.229590893 14.910269737
216 1 0.0 19.680549622 7.229590893 12.070218086
217 1 0.0 0.0 10.041097641 20.590373993
218 1 0.0 0.0 10.041097641 17.750322342
219 1 0.0 0.0 10.041097641 14.910269737
220 1 0.0 0.0 10.041097641 12.070218086
221 1 0.0 0.401643515 12.852604866 20.590373993
222 1 0.0 0.401643515 12.852604866 17.750322342
223 1 0.0 0.401643515 12.852604866 14.910269737
224 1 0.0 0.401643515 12.852604866 12.070218086
225 1 0.0 0.803287029 15.664113045 20.590373993
226 1 0.0 0.803287029 15.664113045 17.750322342
227 1 0.0 0.803287029 15.664113045 14.910269737
228 1 0.0 0.803287029 15.664113045 12.070218086
229 1 0.0 1.204933047 18.47562027 20.590373993
230 1 0.0 1.204933047 18.47562027 17.750322342
231 1 0.0 1.204933047 18.47562027 14.910269737
232 1 0.0 1.204933047 18.47562027 12.070218086
233 1 0.0 2.008219242 4.016438961 20.590373993
234 1 0.0 2.008219242 4.016438961 17.750322342
235 1 0.0 2.008219242 4.016438961 14.910269737
236 1 0.0 2.008219242 4.016438961 12.070218086
237 1 0.0 2.40986371 6.827946663 20.590373993
238 1 0.0 2.40986371 6.827946663 17.750322342
239 1 0.0 2.40986371 6.827946663 14.910269737
240 1 0.0 2.40986371 6.827946663 12.070218086
241 1 0.0 2.811507225 9.639454842 20.590373993
242 1 0.0 2.811507225 9.639454842 17.750322342
243 1 0.0 2.811507225 9.639454842 14.910269737
244 1 0.0 2.811507225 9.639454842 12.070218086
245 1 0.0 3.213151217 12.450961113 20.590373993
246 1 0.0 3.213151217 12.450961113 17.750322342
247 1 0.0 3.213151217 12.450961113 14.910269737
248 1 0.0 3.213151217 12.450961113 12.070218086
249 1 0.0 3.614795446 15.262468338 20.590373993
250 1 0.0 3.614795446 15.262468338 17.750322342
251 1 0.0 3.614795446 15.262468338 14.910269737
252 1 0.0 3.614795446 15.262468338 12.070218086
253 1 0.0 4.016438484 18.073976517 20.590373993
254 1 0.0 4.016438484 18.073976517 17.750322342
255 1 0.0 4.016438484 18.073976517 14.910269737
256 1 0.0 4.016438484 18.073976517 12.070218086
257 1 0.0 4.418082714 0.803287029 20.590373993
258 1 0.0 4.418082714 0.803287029 17.750322342
259 1 0.0 4.418082714 0.803287029 14.910269737
260 1 0.0 4.418082714 0.803287029 12.070218086
261 1 0.0 4.819727421 3.61479497 20.590373993
262 1 0.0 4.819727421 3.61479497 17.750322342
263 1 0.0 4.819727421 3.61479497 14.910269737
264 1 0.0 4.819727421 3.61479497 12.070218086
265 1 0.0 5.221370697 6.426302433 20.590373993
266 1 0.0 5.221370697 6.426302433 17.750322342
267 1 0.0 5.221370697 6.426302433 14.910269737
268 1 0.0 5.221370697 6.426302433 12.070218086
269 1 0.0 5.62301445 9.237810135 20.590373993
270 1 0.0 5.62301445 9.237810135 17.750322342
271 1 0.0 5.62301445 9.237810135 14.910269737
272 1 0.0 5.62301445 9.237810135 12.070218086
273 1 0.0 6.02465868 12.04931736 20.590373993
274 1 0.0 6.02465868 12.04931736 17.750322342
275 1 0.0 6.02465868 12.04931736 14.910269737
276 1 0.0 6.02465868 12.04931736 12.070218086
277 1 0.0 6.426302433 14.860824585 20.590373993
278 1 0.0 6.426302433 14.860824585 17.750322342
279 1 0.0 6.426302433 14.860824585 14.910269737
280 1 0.0 6.426302433 14.860824585 12.070218086
281 1 0.0 6.827945709 17.672330856 20.590373993
282 1 0.0 6.827945709 17.672330856 17.750322342
283 1 0.0 6.827945709 17.672330856 14.910269737
284 1 0.0 6.827945709 17.672330856 12.070218086
285 1 0.0 7.229590893 0.401643515 20.590373993
286 1 0.0 7.229590893 0.401643515 17.750322342
287 1 0.0 7.229590893 0.401643515 14.910269737
288 1 0.0 7.229590893 0.401643515 12.070218086
289 1 0.0 7.631234169 3.213151217 20.590373993
290 1 0.0 7.631234169 3.213151217 17.750322342
291 1 0.0 7.631234169 3.213151217 14.910269737
292 1 0.0 7.631234169 3.213151217 12.070218086
293 1 0.0 8.032876968 6.024658203 20.590373993
294 1 0.0 8.032876968 6.024658203 17.750322342
295 1 0.0 8.032876968 6.024658203 14.910269737
296 1 0.0 8.032876968 6.024658203 12.070218086
297 1 0.0 8.434523582 8.836165428 20.590373993
298 1 0.0 8.434523582 8.836165428 17.750322342
299 1 0.0 8.434523582 8.836165428 14.910269737
300 1 0.0 8.434523582 8.836165428 12.070218086
301 1 0.0 8.836165428 11.647672653 20.590373993
302 1 0.0 8.836165428 11.647672653 17.750322342
303 1 0.0 8.836165428 11.647672653 14.910269737
304 1 0.0 8.836165428 11.647672653 12.070218086
305 1 0.0 9.237810135 14.459181786 20.590373993
306 1 0.0 9.237810135 14.459181786 17.750322342
307 1 0.0 9.237810135 14.459181786 14.910269737
308 1 0.0 9.237810135 14.459181786 12.070218086
309 1 0.0 9.639454842 17.270687103 20.590373993
310 1 0.0 9.639454842 17.270687103 17.750322342
311 1 0.0 9.639454842 17.270687103 14.910269737
312 1 0.0 9.639454842 17.270687103 12.070218086
313 1 0.0 10.041097641 0.0 20.590373993
314 1 0.0 10.041097641 0.0 17.750322342
315 1 0.0 10.041097641 0.0 14.910269737
316 1 0.0 10.041097641 0.0 12.070218086
317 1 0.0 10.442741394 2.811507225 20.590373993
318 1 0.0 10.442741394 2.811507225 17.750322342
319 1 0.0 10.442741394 2.811507225 14.910269737
320 1 0.0 10.442741394 2.811507225 12.070218086
321 1 0.0 10.844386101 5.62301445 20.590373993
322 1 0.0 10.844386101 5.62301445 17.750322342
323 1 0.0 10.844386101 5.62301445 14.910269737
324 1 0.0 10.844386101 5.62301445 12.070218086
325 1 0.0 11.2460289 8.434523582 20.590373993
326 1 0.0 11.2460289 8.434523582 17.750322342
327 1 0.0 11.2460289 8.434523582 14.910269737
328 1 0.0 11.2460289 8.434523582 12.070218086
329 1 0.0 11.647672653 11.2460289 20.590373993
330 1 0.0 11.647672653 11.2460289 17.750322342
331 1 0.0 11.647672653 11.2460289 14.910269737
332 1 0.0 11.647672653 11.2460289 12.070218086
333 1 0.0 12.049316406 14.057536125 20.590373993
334 1 0.0 12.049316406 14.057536125 17.750322342
335 1 0.0 12.049316406 14.057536125 14.910269737
336 1 0.0 12.049316406 14.057536125 12.070218086
337 1 0.0 12.450961113 16.86904335 20.590373993
338 1 0.0 12.450961113 16.86904335 17.750322342
339 1 0.0 12.450961113 16.86904335 14.910269737
340 1 0.0 12.450961113 16.86904335 12.070218086
341 1 0.0 12.852604866 19.680551529 20.590373993
342 1 0.0 12.852604866 19.680551529 17.750322342
343 1 0.0 12.852604866 19.680551529 14.910269737
344 1 0.0 12.852604866 19.680551529 12.070218086
345 1 0.0 13.254248619 2.40986371 20.590373993
346 1 0.0 13.254248619 2.40986371 17.750322342
347 1 0.0 13.254248619 2.40986371 14.910269737
348 1 0.0 13.254248619 2.40986371 12.070218086
349 1 0.0 13.655893326 5.221370697 20.590373993
350 1 0.0 13.655893326 5.221370697 17.750322342
351 1 0.0 13.655893326 5.221370697 14.910269737
352 1 0.0 13.655893326 5.221370697 12.070218086
353 1 0.0 14.057536125 8.032877922 20.590373993
354 1 0.0 14.057536125 8.032877922 17.750322342
355 1 0.0 14.057536125 8.032877922 14.910269737
356 1 0.0 14.057536125 8.032877922 12.070218086
357 1 0.0 14.459179878 10.844384193 20.590373993
358 1 0.0 14.459179878 10.844384193 17.750322342
359 1 0.0 14.459179878 10.844384193 14.910269737
360 1 0.0 14.459179878 10.844384193 12.070218086
361 1 0.0 14.860824585 13.655893326 20.590373993
362 1 0.0 14.860824585 13.655893326 17.750322342
363 1 0.0 14.860824585 13.655893326 14.910269737
364 1 0.0 14.860824585 13.655893326 12.070218086
365 1 0.0 15.262468338 16.467399597 20.590373993
366 1 0.0 15.262468338 16.467399597 17.750322342
367 1 0.0 15.262468338 16.467399597 14.910269737
368 1 0.0 15.262468338 16.467399597 12.070218086
369 1 0.0 15.664112091 19.278909683 20.590373993
370 1 0.0 15.664112091 19.278909683 17.750322342
371 1 0.0 15.664112091 19.278909683 14.910269737
372 1 0.0 15.664112091 19.278909683 12.070218086
373 1 0.0 16.065755844 2.008219242 20.590373993
374 1 0.0 16.065755844 2.008219242 17.750322342
375 1 0.0 16.065755844 2.008219242 14.910269737
376 1 0.0 16.065755844 2.008219242 12.070218086
377 1 0.0 16.467399597 4.819727421 20.590373993
378 1 0.0 16.467399597 4.819727421 17.750322342
379 1 0.0 16.467399597 4.819727421 14.910269737
380 1 0.0 16.467399597 4.819727421 12.070218086
381 1 0.0 16.86904335 7.631234169 20.590373993
382 1 0.0 16.86904335 7.631234169 17.750322342
383 1 0.0 16.86904335 7.631234169 14.910269737
384 1 0.0 16.86904335 7.631234169 12.070218086
385 1 0.0 17.270687103 10.442741394 20.590373993
386 1 0.0 17.270687103 10.442741394 17.750322342
387 1 0.0 17.270687103 10.442741394 14.910269737
388 1 0.0 17.270687103 10.442741394 12.070218086
389 1 0.0 17.672330856 13.254249573 20.590373993
390 1 0.0 17.672330856 13.254249573 17.750322342
391 1 0.0 17.672330856 13.254249573 14.910269737
392 1 0.0 17.672330856 13.254249573 12.070218086
393 1 0.0 18.073976517 16.065755844 20.590373993
394 1 0.0 18.073976517 16.065755844 17.750322342
395 1 0.0 18.073976517 16.065755844 14.910269737
396 1 0.0 18.073976517 16.065755844 12.070218086
397 1 0.0 18.47562027 18.87726593 20.590373993
398 1 0.0 18.47562027 18.87726593 17.750322342
399 1 0.0 18.47562027 18.87726593 14.910269737
400 1 0.0 18.47562027 18.87726593 12.070218086
401 2 0.0 20.080680847 20.080680847 0.710012853
402 2 0.0 20.080680847 20.080680847 3.550064325
403 2 0.0 20.080680847 20.080680847 6.390115738
404 2 0.0 20.080680847 20.080680847 9.230166435
405 2 0.0 20.080680847 2.939453125 0.710012853
406 2 0.0 20.080680847 2.939453125 3.550064325
407 2 0.0 20.080680847 2.939453125 6.390115738
408 2 0.0 20.080680847 2.939453125 9.230166435
409 2 0.0 20.080680847 5.779505253 0.710012853
410 2 0.0 20.080680847 5.779505253 3.550064325
411 2 0.0 20.080680847 5.779505253 6.390115738
412 2 0.0 20.080680847 5.779505253 9.230166435
413 2 0.0 20.080680847 8.619556427 0.710012853
414 2 0.0 20.080680847 8.619556427 3.550064325
415 2 0.0 20.080680847 8.619556427 6.390115738
416 2 0.0 20.080680847 8.619556427 9.230166435
417 2 0.0 20.080680847 11.459607124 0.710012853
418 2 0.0 20.080680847 11.459607124 3.550064325
419 2 0.0 20.080680847 11.459607124 6.390115738
420 2 0.0 20.080680847 11.459607124 9.230166435
421 2 0.0 20.080680847 14.299657822 0.710012853
422 2 0.0 20.080680847 14.299657822 3.550064325
423 2 0.0 20.080680847 14.299657822 6.390115738
424 2 0.0 20.080680847 14.299657822 9.230166435
425 2 0.0 20.080680847 17.139709473 0.710012853
426 2 0.0 20.080680847 17.139709473 3.550064325
427 2 0.0 20.080680847 17.139709473 6.390115738
428 2 0.0 20.080680847 17.139709473 9.230166435
429 2 0.0 2.939453125 20.080680847 0.710012853
430 2 0.0 2.939453125 20.080680847 3.550064325
431 2 0.0 2.939453125 20.080680847 6.390115738
432 2 0.0 2.939453125 20.080680847 9.230166435
433 2 0.0 2.939453125 2.939453125 0.710012853
434 2 0.0 2.939453125 2.939453125 3.550064325
435 2 0.0 2.939453125 2.939453125 6.390115738
436 2 0.0 2.939453125 2.939453125 9.230166435
437 2 0.0 2.939453125 5.779505253 0.710012853
438 2 0.0 2.939453125 5.779505253 3.550064325
439 2 0.0 2.939453125 5.779505253 6.390115738
440 2 0.0 2.939453125 5.779505253 9.230166435
441 2 0.0 2.939453125 8.619556427 0.710012853
442 2 0.0 2.939453125 8.619556427 3.550064325
443 2 0.0 2.939453125 8.619556427 6.390115738
444 2 0.0 2.939453125 8.619556427 9.230166435
445 2 0.0 2.939453125 11.459607124 0.710012853
446 2 0.0 2.939453125 11.459607124 3.550064325
447 2 0.0 2.939453125 11.459607124 6.390115738
448 2 0.0 2.939453125 11.459607124 9.230166435
449 2 0.0 2.939453125 14.299657822 0.710012853
450 2 0.0 2.939453125 14.299657822 3.550064325
451 2 0.0 2.939453125 14.299657822 6.390115738
452 2 0.0 2.939453125 14.299657822 9.230166435
453 2 0.0 2.939453125 17.139709473 0.710012853
454 2 0.0 2.939453125 17.139709473 3.550064325
455 2 0.0 2.939453125 17.139709473 6.390115738
456 2 0.0 2.939453125 17.139709473 9.230166435
457 2 0.0 5.779505253 20.080680847 0.710012853
458 2 0.0 5.779505253 20.080680847 3.550064325
459 2 0.0 5.779505253 20.080680847 6.390115738
460 2 0.0 5.779505253 20.080680847 9.230166435
461 2 0.0 5.779505253 2.939453125 0.710012853
462 2 0.0 5.779505253 2.939453125 3.550064325
463 2 0.0 5.779505253 2.939453125 6.390115738
464 2 0.0 5.779505253 2.939453125 9.230166435
465 2 0.0 5.779505253 5.779505253 0.710012853
466 2 0.0 5.779505253 5.779505253 3.550064325
467 2 0.0 5.779505253 5.779505253 6.390115738
468 2 0.0 5.779505253 5.779505253 9.230166435
469 2 0.0 5.779505253 8.619556427 0.710012853
470 2 0.0 5.779505253 8.619556427 3.550064325
471 2 0.0 5.779505253 8.619556427 6.390115738
472 2 0.0 5.779505253 8.619556427 9.230166435
473 2 0.0 5.779505253 11.459607124 0.710012853
474 2 0.0 5.779505253 11.459607124 3.550064325
475 2 0.0 5.779505253 11.459607124 6.390115738
476 2 0.0 5.779505253 11.459607124 9.230166435
477 2 0.0 5.779505253 14.299657822 0.710012853
478 2 0.0 5.779505253 14.299657822 3.550064325
479 2 0.0 5.779505253 14.299657822 6.390115738
480 2 0.0 5.779505253 14.299657822 9.230166435
481 2 0.0 5.779505253 17.139709473 0.710012853
482 2 0.0 5.779505253 17.139709473 3.550064325
483 2 0.0 5.779505253 17.139709473 6.390115738
484 2 0.0 5.779505253 17.139709473 9.230166435
485 2 0.0 8.619556427 20.080680847 0.710012853
486 2 0.0 8.619556427 20.080680847 3.550064325
487 2 0.0 8.619556427 20.080680847 6.390115738
488 2 0.0 8.619556427 20.080680847 9.230166435
489 2 0.0 8.619556427 2.939453125 0.710012853
490 2 0.0 8.619556427 2.939453125 3.550064325
491 2 0.0 8.619556427 2.939453125 6.390115738
492 2 0.0 8.619556427 2.939453125 9.230166435
493 2 0.0 8.619556427 5.779505253 0.710012853
494 2 0.0 8.619556427 5.779505253 3.550064325
495 2 0.0 8.619556427 5.779505253 6.390115738
496 2 0.0 8.619556427 5.779505253 9.230166435
497 2 0.0 8.619556427 8.619556427 0.710012853
498 2 0.0 8.619556427 8.619556427 3.550064325
499 2 0.0 8.619556427 8.619556427 6.390115738
500 2 0.0 8.619556427 8.619556427 9.230166435
501 2 0.0 8.619556427 11.459607124 0.710012853
502 2 0.0 8.619556427 11.459607124 3.550064325
503 2 0.0 8.619556427 11.459607124 6.390115738
504 2 0.0 8.619556427 11.459607124 9.230166435
505 2 0.0 8.619556427 14.299657822 0.710012853
506 2 0.0 8.619556427 14.299657822 3.550064325
507 2 0.0 8.619556427 14.299657822 6.390115738
508 2 0.0 8.619556427 14.299657822 9.230166435
509 2 0.0 8.619556427 17.139709473 0.710012853
510 2 0.0 8.619556427 17.139709473 3.550064325
511 2 0.0 8.619556427 17.139709473 6.390115738
512 2 0.0 8.619556427 17.139709473 9.230166435
513 2 0.0 11.459607124 20.080680847 0.710012853
514 2 0.0 11.459607124 20.080680847 3.550064325
515 2 0.0 11.459607124 20.080680847 6.390115738
516 2 0.0 11.459607124 20.080680847 9.230166435
517 2 0.0 11.459607124 2.939453125 0.710012853
518 2 0.0 11.459607124 2.939453125 3.550064325
519 2 0.0 11.459607124 2.939453125 6.390115738
520 2 0.0 11.459607124 2.939453125 9.230166435
521 2 0.0 11.459607124 5.779505253 0.710012853
522 2 0.0 11.459607124 5.779505253 3.550064325
523 2 0.0 11.459607124 5.779505253 6.390115738
524 2 0.0 11.459607124 5.779505253 9.230166435
525 2 0.0 11.459607124 8.619556427 0.710012853
526 2 0.0 11.459607124 8.619556427 3.550064325
527 2 0.0 11.459607124 8.619556427 6.390115738
528 2 0.0 11.459607124 8.619556427 9.230166435
529 2 0.0 11.459607124 11.459607124 0.710012853
530 2 0.0 11.459607124 11.459607124 3.550064325
531 2 0.0 11.459607124 11.459607124 6.390115738
532 2 0.0 11.459607124 11.459607124 9.230166435
533 2 0.0 11.459607124 14.299657822 0.710012853
534 2 0.0 11.459607124 14.299657822 3.550064325
535 2 0.0 11.459607124 14.299657822 6.390115738
536 2 0.0 11.459607124 14.299657822 9.230166435
537 2 0.0 11.459607124 17.139709473 0.710012853
538 2 0.0 11.459607124 17.139709473 3.550064325
539 2 0.0 11.459607124 17.139709473 6.390115738
540 2 0.0 11.459607124 17.139709473 9.230166435
541 2 0.0 14.299657822 20.080680847 0.710012853
542 2 0.0 14.299657822 20.080680847 3.550064325
543 2 0.0 14.299657822 20.080680847 6.390115738
544 2 0.0 14.299657822 20.080680847 9.230166435
545 2 0.0 14.299657822 2.939453125 0.710012853
546 2 0.0 14.299657822 2.939453125 3.550064325
547 2 0.0 14.299657822 2.939453125 6.390115738
548 2 0.0 14.299657822 2.939453125 9.230166435
549 2 0.0 14.299657822 5.779505253 0.710012853
550 2 0.0 14.299657822 5.779505253 3.550064325
551 2 0.0 14.299657822 5.779505253 6.390115738
552 2 0.0 14.299657822 5.779505253 9.230166435
553 2 0.0 14.299657822 8.619556427 0.710012853
554 2 0.0 14.299657822 8.619556427 3.550064325
555 2 0.0 14.299657822 8.619556427 6.390115738
556 2 0.0 14.299657822 8.619556427 9.230166435
557 2 0.0 14.299657822 11.459607124 0.710012853
558 2 0.0 14.299657822 11.459607124 3.550064325
559 2 0.0 14.299657822 11.459607124 6.390115738
560 2 0.0 14.299657822 11.459607124 9.230166435
561 2 0.0 14.299657822 14.299657822 0.710012853
562 2 0.0 14.299657822 14.299657822 3.550064325
563 2 0.0 14.299657822 14.299657822 6.390115738
564 2 0.0 14.299657822 14.299657822 9.230166435
565 2 0.0 14.299657822 17.139709473 0.710012853
566 2 0.0 14.299657822 17.139709473 3.550064325
567 2 0.0 14.299657822 17.139709473 6.390115738
568 2 0.0 14.299657822 17.139709473 9.230166435
569 2 0.0 17.139709473 20.080680847 0.710012853
570 2 0.0 17.139709473 20.080680847 3.550064325
571 2 0.0 17.139709473 20.080680847 6.390115738
572 2 0.0 17.139709473 20.080680847 9.230166435
573 2 0.0 17.139709473 2.939453125 0.710012853
574 2 0.0 17.139709473 2.939453125 3.550064325
575 2 0.0 17.139709473 2.939453125 6.390115738
576 2 0.0 17.139709473 2.939453125 9.230166435
577 2 0.0 17.139709473 5.779505253 0.710012853
578 2 0.0 17.139709473 5.779505253 3.550064325
579 2 0.0 17.139709473 5.779505253 6.390115738
580 2 0.0 17.139709473 5.779505253 9.230166435
581 2 0.0 17.139709473 8.619556427 0.710012853
582 2 0.0 17.139709473 8.619556427 3.550064325
583 2 0.0 17.139709473 8.619556427 6.390115738
584 2 0.0 17.139709473 8.619556427 9.230166435
585 2 0.0 17.139709473 11.459607124 0.710012853
586 2 0.0 17.139709473 11.459607124 3.550064325
587 2 0.0 17.139709473 11.459607124 6.390115738
588 2 0.0 17.139709473 11.459607124 9.230166435
589 2 0.0 17.139709473 14.299657822 0.710012853
590 2 0.0 17.139709473 14.299657822 3.550064325
591 2 0.0 17.139709473 14.299657822 6.390115738
592 2 0.0 17.139709473 14.299657822 9.230166435
593 2 0.0 17.139709473 17.139709473 0.710012853
594 2 0.0 17.139709473 17.139709473 3.550064325
595 2 0.0 17.139709473 17.139709473 6.390115738
596 2 0.0 17.139709473 17.139709473 9.230166435
597 2 0.0 1.519427657 1.519427657 2.1300385
598 2 0.0 1.519427657 1.519427657 4.970089912
599 2 0.0 1.519427657 1.519427657 7.810141563
600 2 0.0 1.519427657 1.519427657 10.650194168
601 2 0.0 1.519427657 4.359479427 2.1300385
602 2 0.0 1.519427657 4.359479427 4.970089912
603 2 0.0 1.519427657 4.359479427 7.810141563
604 2 0.0 1.519427657 4.359479427 10.650194168
605 2 0.0 1.519427657 7.199530602 2.1300385
606 2 0.0 1.519427657 7.199530602 4.970089912
607 2 0.0 1.519427657 7.199530602 7.810141563
608 2 0.0 1.519427657 7.199530602 10.650194168
609 2 0.0 1.519427657 10.039581299 2.1300385
610 2 0.0 1.519427657 10.039581299 4.970089912
611 2 0.0 1.519427657 10.039581299 7.810141563
612 2 0.0 1.519427657 10.039581299 10.650194168
613 2 0.0 1.519427657 12.879633904 2.1300385
614 2 0.0 1.519427657 12.879633904 4.970089912
615 2 0.0 1.519427657 12.879633904 7.810141563
616 2 0.0 1.519427657 12.879633904 10.650194168
617 2 0.0 1.519427657 15.719684601 2.1300385
618 2 0.0 1.519427657 15.719684601 4.970089912
619 2 0.0 1.519427657 15.719684601 7.810141563
620 2 0.0 1.519427657 15.719684601 10.650194168