# LAMMPS data file written by Ovito Basic 3.0.0-dev791
272 atoms
2 atom types
0.0 12.0493183136 xlo xhi
0.0 12.0493183136 ylo yhi
0.0 22.720413208 zlo zhi

Atoms  # charge

1 1 0.0 0.0 0.0 22.010398865
2 1 0.0 0.0 0.0 19.170345306
3 1 0.0 0.0 0.0 16.330295563
4 1 0.0 0.0 0.0 13.490243912
5 1 0.0 0.0 4.016438961 22.010398865
6 1 0.0 0.0 4.016438961 19.170345306
7 1 0.0 0.0 4.016438961 16.330295563
8 1 0.0 0.0 4.016438961 13.490243912
9 1 0.0 0.0 8.032877922 22.010398865
10 1 0.0 0.0 8.032877922 19.170345306
11 1 0.0 0.0 8.032877922 16.330295563
12 1 0.0 0.0 8.032877922 13.490243912
13 1 0.0 4.016438961 0.0 22.010398865
14 1 0.0 4.016438961 0.0 19.170345306
15 1 0.0 4.016438961 0.0 16.330295563
16 1 0.0 4.016438961 0.0 13.490243912
17 1 0.0 4.016438961 4.016438961 22.010398865
18 1 0.0 4.016438961 4.016438961 19.170345306
19 1 0.0 4.016438961 4.016438961 16.330295563
20 1 0.0 4.016438961 4.016438961 13.490243912
21 1 0.0 4.016438961 8.032877922 22.010398865
22 1 0.0 4.016438961 8.032877922 19.170345306
23 1 0.0 4.016438961 8.032877922 16.330295563
24 1 0.0 4.016438961 8.032877922 13.490243912
25 1 0.0 8.032877922 0.0 22.010398865
26 1 0.0 8.032877922 0.0 19.170345306
27 1 0.0 8.032877922 0.0 16.330295563
28 1 0.0 8.032877922 0.0 13.490243912
29 1 0.0 8.032877922 4.016438961 22.010398865
30 1 0.0 8.032877922 4.016438961 19.170345306
31 1 0.0 8.032877922 4.016438961 16.330295563
32 1 0.0 8.032877922 4.016438961 13.490243912
33 1 0.0 8.032877922 8.032877922 22.010398865
34 1 0.0 8.032877922 8.032877922 19.170345306
35 1 0.0 8.032877922 8.032877922 16.330295563
36 1 0.0 8.032877922 8.032877922 13.490243912
37 1 0.0 2.008219481 2.008219481 22.010398865
38 1 0.0 2.008219481 2.008219481 19.170345306
39 1 0.0 2.008219481 2.008219481 16.330295563
40 1 0.0 2.008219481 2.008219481 13.490243912
41 1 0.0 2.008219481 6.02465868 22.010398865
42 1 0.0 2.008219481 6.02465868 19.170345306
43 1 0.0 2.008219481 6.02465868 16.330295563
44 1 0.0 2.008219481 6.02465868 13.490243912
45 1 0.0 2.008219481 10.041099548 22.010398865
46 1 0.0 2.008219481 10.041099548 19.170345306
47 1 0.0 2.008219481 10.041099548 16.330295563
48 1 0.0 2.008219481 10.041099548 13.490243912
49 1 0.0 6.02465868 2.008219481 22.010398865
50 1 0.0 6.02465868 2.008219481 19.170345306
51 1 0.0 6.02465868 2.008219481 16.330295563
52 1 0.0 6.02465868 2.008219481 13.490243912
53 1 0.0 6.02465868 6.02465868 22.010398865
54 1 0.0 6.02465868 6.02465868 19.170345306
55 1 0.0 6.02465868 6.02465868 16.330295563
56 1 0.0 6.02465868 6.02465868 13.490243912
57 1 0.0 6.02465868 10.041099548 22.010398865
58 1 0.0 6.02465868 10.041099548 19.170345306
59 1 0.0 6.02465868 10.041099548 16.330295563
60 1 0.0 6.02465868 10.041099548 13.490243912
61 1 0.0 10.041099548 2.008219481 22.010398865
62 1 0.0 10.041099548 2.008219481 19.170345306
63 1 0.0 10.041099548 2.008219481 16.330295563
64 1 0.0 10.041099548 2.008219481 13.490243912
65 1 0.0 10.041099548 6.02465868 22.010398865
66 1 0.0 10.041099548 6.02465868 19.170345306
67 1 0.0 10.041099548 6.02465868 16.330295563
68 1 0.0 10.041099548 6.02465868 13.490243912
69 1 0.0 10.041099548 10.041099548 22.010398865
70 1 0.0 10.041099548 10.041099548 19.170345306
71 1 0.0 10.041099548 10.041099548 16.330295563
72 1 0.0 10.041099548 10.041099548 13.490243912
73 1 0.0 2.008219481 0.0 20.590373993
74 1 0.0 2.008219481 0.0 17.750322342
75 1 0.0 2.008219481 0.0 14.910269737
76 1 0.0 2.008219481 0.0 12.070218086
77 1 0.0 2.008219481 4.016438961 20.590373993
78 1 0.0 2.008219481 4.016438961 17.750322342
79 1 0.0 2.008219481 4.016438961 14.910269737
80 1 0.0 2.008219481 4.016438961 12.070218086
81 1 0.0 2.008219481 8.032877922 20.590373993
82 1 0.0 2.008219481 8.032877922 17.750322342
83 1 0.0 2.008219481 8.032877922 14.910269737
84 1 0.0 2.008219481 8.032877922 12.070218086
85 1 0.0 6.02465868 0.0 20.590373993
86 1 0.0 6.02465868 0.0 17.750322342
87 1 0.0 6.02465868 0.0 14.910269737
88 1 0.0 6.02465868 0.0 12.070218086
89 1 0.0 6.02465868 4.016438961 20.590373993
90 1 0.0 6.02465868 4.016438961 17.750322342
91 1 0.0 6.02465868 4.016438961 14.910269737
92 1 0.0 6.02465868 4.016438961 12.070218086
93 1 0.0 6.02465868 8.032877922 20.590373993
94 1 0.0 6.02465868 8.032877922 17.750322342
95 1 0.0 6.02465868 8.032877922 14.910269737
96 1 0.0 6.02465868 8.032877922 12.070218086
97 1 0.0 10.041099548 0.0 20.590373993
98 1 0.0 10.041099548 0.0 17.750322342
99 1 0.0 10.041099548 0.0 14.910269737
100 1 0.0 10.041099548 0.0 12.070218086
101 1 0.0 10.041099548 4.016438961 20.590373993
102 1 0.0 10.041099548 4.016438961 17.750322342
103 1 0.0 10.041099548 4.016438961 14.910269737
104 1 0.0 10.041099548 4.016438961 12.070218086
105 1 0.0 10.041099548 8.032877922 20.590373993
106 1 0.0 10.041099548 8.032877922 17.750322342
107 1 0.0 10.041099548 8.032877922 14.910269737
108 1 0.0 10.041099548 8.032877922 12.070218086
109 1 0.0 0.0 2.008219481 20.590373993
110 1 0.0 0.0 2.008219481 17.750322342
111 1 0.0 0.0 2.008219481 14.910269737
112 1 0.0 0.0 2.008219481 12.070218086
113 1 0.0 0.0 6.02465868 20.590373993
114 1 0.0 0.0 6.02465868 17.750322342
115 1 0.0 0.0 6.02465868 14.910269737
116 1 0.0 0.0 6.02465868 12.070218086
117 1 0.0 0.0 10.041099548 20.590373993
118 1 0.0 0.0 10.041099548 17.750322342
119 1 0.0 0.0 10.041099548 14.910269737
120 1 0.0 0.0 10.041099548 12.070218086
121 1 0.0 4.016438961 2.008219481 20.590373993
122 1 0.0 4.016438961 2.008219481 17.750322342
123 1 0.0 4.016438961 2.008219481 14.910269737
124 1 0.0 4.016438961 2.008219481 12.070218086
125 1 0.0 4.016438961 6.02465868 20.590373993
126 1 0.0 4.016438961 6.02465868 17.750322342
127 1 0.0 4.016438961 6.02465868 14.910269737
128 1 0.0 4.016438961 6.02465868 12.070218086
129 1 0.0 4.016438961 10.041099548 20.590373993
130 1 0.0 4.016438961 10.041099548 17.750322342
131 1 0.0 4.016438961 10.041099548 14.910269737
132 1 0.0 4.016438961 10.041099548 12.070218086
133 1 0.0 8.032877922 2.008219481 20.590373993
134 1 0.0 8.032877922 2.008219481 17.750322342
135 1 0.0 8.032877922 2.008219481 14.910269737
136 1 0.0 8.032877922 2.008219481 12.070218086
137 1 0.0 8.032877922 6.02465868 20.590373993
138 1 0.0 8.032877922 6.02465868 17.750322342
139 1 0.0 8.032877922 6.02465868 14.910269737
140 1 0.0 8.032877922 6.02465868 12.070218086
141 1 0.0 8.032877922 10.041099548 20.590373993
142 1 0.0 8.032877922 10.041099548 17.750322342
143 1 0.0 8.032877922 10.041099548 14.910269737
144 1 0.0 8.032877922 10.041099548 12.070218086
145 2 0.0 12.045568466 12.045568466 0.710012853
146 2 0.0 12.045568466 12.045568466 3.550064325
147 2 0.0 12.045568466 12.045568466 6.390115738
148 2 0.0 12.045568466 12.045568466 9.230166435
149 2 0.0 12.045568466 3.180857658 0.710012853
150 2 0.0 12.045568466 3.180857658 3.550064325
151 2 0.0 12.045568466 3.180857658 6.390115738
152 2 0.0 12.045568466 3.180857658 9.230166435
153 2 0.0 12.045568466 6.020909309 0.710012853
154 2 0.0 12.045568466 6.020909309 3.550064325
155 2 0.0 12.045568466 6.020909309 6.390115738
156 2 0.0 12.045568466 6.020909309 9.230166435
157 2 0.0 12.045568466 8.86096096 0.710012853
158 2 0.0 12.045568466 8.86096096 3.550064325
159 2 0.0 12.045568466 8.86096096 6.390115738
160 2 0.0 12.045568466 8.86096096 9.230166435
161 2 0.0 3.180857658 12.045568466 0.710012853
162 2 0.0 3.180857658 12.045568466 3.550064325
163 2 0.0 3.180857658 12.045568466 6.390115738
164 2 0.0 3.180857658 12.045568466 9.230166435
165 2 0.0 3.180857658 3.180857658 0.710012853
166 2 0.0 3.180857658 3.180857658 3.550064325
167 2 0.0 3.180857658 3.180857658 6.390115738
168 2 0.0 3.180857658 3.180857658 9.230166435
169 2 0.0 3.180857658 6.020909309 0.710012853
170 2 0.0 3.180857658 6.020909309 3.550064325
171 2 0.0 3.180857658 6.020909309 6.390115738
172 2 0.0 3.180857658 6.020909309 9.230166435
173 2 0.0 3.180857658 8.86096096 0.710012853
174 2 0.0 3.180857658 8.86096096 3.550064325
175 2 0.0 3.180857658 8.86096096 6.390115738
176 2 0.0 3.180857658 8.86096096 9.230166435
177 2 0.0 6.020909309 12.045568466 0.710012853
178 2 0.0 6.020909309 12.045568466 3.550064325
179 2 0.0 6.020909309 12.045568466 6.390115738
180 2 0.0 6.020909309 12.045568466 9.230166435
181 2 0.0 6.020909309 3.180857658 0.710012853
182 2 0.0 6.020909309 3.180857658 3.550064325
183 2 0.0 6.020909309 3.180857658 6.390115738
184 2 0.0 6.020909309 3.180857658 9.230166435
185 2 0.0 6.020909309 6.020909309 0.710012853
186 2 0.0 6.020909309 6.020909309 3.550064325
187 2 0.0 6.020909309 6.020909309 6.390115738
188 2 0.0 6.020909309 6.020909309 9.230166435
189 2 0.0 6.020909309 8.86096096 0.710012853
190 2 0.0 6.020909309 8.86096096 3.550064325
191 2 0.0 6.020909309 8.86096096 6.390115738
192 2 0.0 6.020909309 8.86096096 9.230166435
193 2 0.0 8.86096096 12.045568466 0.710012853
194 2 0.0 8.86096096 12.045568466 3.550064325
195 2 0.0 8.86096096 12.045568466 6.390115738
196 2 0.0 8.86096096 12.045568466 9.230166435
197 2 0.0 8.86096096 3.180857658 0.710012853
198 2 0.0 8.86096096 3.180857658 3.550064325
199 2 0.0 8.86096096 3.180857658 6.390115738
200 2 0.0 8.86096096 3.180857658 9.230166435
201 2 0.0 8.86096096 6.020909309 0.710012853
202 2 0.0 8.86096096 6.020909309 3.550064325
203 2 0.0 8.86096096 6.020909309 6.390115738
204 2 0.0 8.86096096 6.020909309 9.230166435
205 2 0.0 8.86096096 8.86096096 0.710012853
206 2 0.0 8.86096096 8.86096096 3.550064325
207 2 0.0 8.86096096 8.86096096 6.390115738
208 2 0.0 8.86096096 8.86096096 9.230166435
209 2 0.0 1.760831833 1.760831833 2.1300385
210 2 0.0 1.760831833 1.760831833 4.970089912
211 2 0.0 1.760831833 1.760831833 7.810141563
212 2 0.0 1.760831833 1.760831833 10.650194168
213 2 0.0 1.760831833 4.600883007 2.1300385
214 2 0.0 1.760831833 4.600883007 4.970089912
215 2 0.0 1.760831833 4.600883007 7.810141563
216 2 0.0 1.760831833 4.600883007 10.650194168
217 2 0.0 1.760831833 7.440934658 2.1300385
218 2 0.0 1.760831833 7.440934658 4.970089912
219 2 0.0 1.760831833 7.440934658 7.810141563
220 2 0.0 1.760831833 7.440934658 10.650194168
221 2 0.0 1.760831833 10.280986786 2.1300385
222 2 0.0 1.760831833 10.280986786 4.970089912
223 2 0.0 1.760831833 10.280986786 7.810141563
224 2 0.0 1.760831833 10.280986786 10.650194168
225 2 0.0 4.600883007 1.760831833 2.1300385
226 2 0.0 4.600883007 1.760831833 4.970089912
227 2 0.0 4.600883007 1.760831833 7.810141563
228 2 0.0 4.600883007 1.760831833 10.650194168
229 2 0.0 4.600883007 4.600883007 2.1300385
230 2 0.0 4.600883007 4.600883007 4.970089912
231 2 0.0 4.600883007 4.600883007 7.810141563
232 2 0.0 4.600883007 4.600883007 10.650194168
233 2 0.0 4.600883007 7.440934658 2.1300385
234 2 0.0 4.600883007 7.440934658 4.970089912
235 2 0.0 4.600883007 7.440934658 7.810141563
236 2 0.0 4.600883007 7.440934658 10.650194168
237 2 0.0 4.600883007 10.280986786 2.1300385
238 2 0.0 4.600883007 10.280986786 4.970089912
239 2 0.0 4.600883007 10.280986786 7.810141563
240 2 0.0 4.600883007 10.280986786 10.650194168
241 2 0.0 7.440934658 1.760831833 2.1300385
242 2 0.0 7.440934658 1.760831833 4.970089912
243 2 0.0 7.440934658 1.760831833 7.810141563
244 2 0.0 7.440934658 1.760831833 10.650194168
245 2 0.0 7.440934658 4.600883007 2.1300385
246 2 0.0 7.440934658 4.600883007 4.970089912
247 2 0.0 7.440934658 4.600883007 7.810141563
248 2 0.0 7.440934658 4.600883007 10.650194168
249 2 0.0 7.440934658 7.440934658 2.1300385
250 2 0.0 7.440934658 7.440934658 4.970089912
251 2 0.0 7.440934658 7.440934658 7.810141563
252 2 0.0 7.440934658 7.440934658 10.650194168
253 2 0.0 7.440934658 10.280986786 2.1300385
254 2 0.0 7.440934658 10.280986786 4.970089912
255 2 0.0 7.440934658 10.280986786 7.810141563
256 2 0.0 7.440934658 10.280986786 10.650194168
257 2 0.0 10.280986786 1.760831833 2.1300385
258 2 0.0 10.280986786 1.760831833 4.970089912
259 2 0.0 10.280986786 1.760831833 7.810141563
260 2 0.0 10.280986786 1.760831833 10.650194168
261 2 0.0 10.280986786 4.600883007 2.1300385
262 2 0.0 10.280986786 4.600883007 4.970089912
263 2 0.0 10.280986786 4.600883007 7.810141563
264 2 0.0 10.280986786 4.600883007 10.650194168
265 2 0.0 10.280986786 7.440934658 2.1300385
266 2 0.0 10.280986786 7.440934658 4.970089912
267 2 0.0 10.280986786 7.440934658 7.810141563
268 2 0.0 10.280986786 7.440934658 10.650194168
269 2 0.0 10.280986786 10.280986786 2.1300385
270 2 0.0 10.280986786 10.280986786 4.970089912
271 2 0.0 10.280986786 10.280986786 7.810141563
272 2 0.0 10.280986786 10.280986786 10.650194168
