# LAMMPS data file written by Ovito Basic 3.0.0-dev791
1600 atoms
2 atom types
0.0 3.5057981014 xlo xhi
0.0 24.7897357941 ylo yhi
0.0 198.3178863525 zlo zhi

Atoms  # charge

1 1 0.0 0.0 0.0 99.158935547
2 1 0.0 0.0 0.0 123.948669434
3 1 0.0 0.0 0.0 148.73840332
4 1 0.0 0.0 0.0 173.528137207
5 1 0.0 0.0 3.47056222 99.654724121
6 1 0.0 0.0 3.47056222 124.444458008
7 1 0.0 0.0 3.47056222 149.234191895
8 1 0.0 0.0 3.47056222 174.023910522
9 1 0.0 0.0 2.974768162 103.125282288
10 1 0.0 0.0 2.974768162 127.915023804
11 1 0.0 0.0 2.974768162 152.70475769
12 1 0.0 0.0 2.974768162 177.494491577
13 1 0.0 0.0 2.478972435 106.595855713
14 1 0.0 0.0 2.478972435 131.3855896
15 1 0.0 0.0 2.478972435 156.175323486
16 1 0.0 0.0 2.478972435 180.965057373
17 1 0.0 0.0 1.983178258 110.066413879
18 1 0.0 0.0 1.983178258 134.856170654
19 1 0.0 0.0 1.983178258 159.645889282
20 1 0.0 0.0 1.983178258 184.435623169
21 1 0.0 0.0 1.487384081 113.536979675
22 1 0.0 0.0 1.487384081 138.326705933
23 1 0.0 0.0 1.487384081 163.116455078
24 1 0.0 0.0 1.487384081 187.906173706
25 1 0.0 0.0 0.991589844 117.007545471
26 1 0.0 0.0 0.991589844 141.797302246
27 1 0.0 0.0 0.991589844 166.587020874
28 1 0.0 0.0 0.991589844 191.376754761
29 1 0.0 0.0 0.495794207 120.478103638
30 1 0.0 0.0 0.495794207 145.267837524
31 1 0.0 0.0 0.495794207 170.05758667
32 1 0.0 0.0 0.495794207 194.847305298
33 1 0.0 0.0 24.29393959 102.629493713
34 1 0.0 0.0 24.29393959 127.4192276
35 1 0.0 0.0 24.29393959 152.208969116
36 1 0.0 0.0 24.29393959 176.998703003
37 1 0.0 0.0 23.798145294 106.100059509
38 1 0.0 0.0 23.798145294 130.889785767
39 1 0.0 0.0 23.798145294 155.679519653
40 1 0.0 0.0 23.798145294 180.46925354
41 1 0.0 0.0 23.302350998 109.570625305
42 1 0.0 0.0 23.302350998 134.360351563
43 1 0.0 0.0 23.302350998 159.150100708
44 1 0.0 0.0 23.302350998 183.939819336
45 1 0.0 0.0 22.806556702 113.041183472
46 1 0.0 0.0 22.806556702 137.830917358
47 1 0.0 0.0 22.806556702 162.620651245
48 1 0.0 0.0 22.806556702 187.410385132
49 1 0.0 0.0 22.310762405 116.511741638
50 1 0.0 0.0 22.310762405 141.301467896
51 1 0.0 0.0 22.310762405 166.0912323
52 1 0.0 0.0 22.310762405 190.880950928
53 1 0.0 0.0 21.814966202 119.982315063
54 1 0.0 0.0 21.814966202 144.77204895
55 1 0.0 0.0 21.814966202 169.561782837
56 1 0.0 0.0 21.814966202 194.351516724
57 1 0.0 0.0 21.319171906 123.45287323
58 1 0.0 0.0 21.319171906 148.242614746
59 1 0.0 0.0 21.319171906 173.032363892
60 1 0.0 0.0 21.319171906 197.82208252
61 1 0.0 0.0 20.823377609 102.13369751
62 1 0.0 0.0 20.823377609 126.923431396
63 1 0.0 0.0 20.823377609 151.713165283
64 1 0.0 0.0 20.823377609 176.50289917
65 1 0.0 0.0 20.327581406 105.604270935
66 1 0.0 0.0 20.327581406 130.393997192
67 1 0.0 0.0 20.327581406 155.183746338
68 1 0.0 0.0 20.327581406 179.973464966
69 1 0.0 0.0 19.831787109 109.074829102
70 1 0.0 0.0 19.831787109 133.864562988
71 1 0.0 0.0 19.831787109 158.654296875
72 1 0.0 0.0 19.831787109 183.444030762
73 1 0.0 0.0 19.335990906 112.545387268
74 1 0.0 0.0 19.335990906 137.335113525
75 1 0.0 0.0 19.335990906 162.12487793
76 1 0.0 0.0 19.335990906 186.914596558
77 1 0.0 0.0 18.840196609 116.015960693
78 1 0.0 0.0 18.840196609 140.80569458
79 1 0.0 0.0 18.840196609 165.595428467
80 1 0.0 0.0 18.840196609 190.385162354
81 1 0.0 0.0 18.344402313 119.48651886
82 1 0.0 0.0 18.344402313 144.276245117
83 1 0.0 0.0 18.344402313 169.065979004
84 1 0.0 0.0 18.344402313 193.855728149
85 1 0.0 0.0 17.848609924 122.957077026
86 1 0.0 0.0 17.848609924 147.746810913
87 1 0.0 0.0 17.848609924 172.5365448
88 1 0.0 0.0 17.848609924 197.326278687
89 1 0.0 0.0 17.352815628 101.637901306
90 1 0.0 0.0 17.352815628 126.427635193
91 1 0.0 0.0 17.352815628 151.217391968
92 1 0.0 0.0 17.352815628 176.007095337
93 1 0.0 0.0 16.857021332 105.108459473
94 1 0.0 0.0 16.857021332 129.898193359
95 1 0.0 0.0 16.857021332 154.687927246
96 1 0.0 0.0 16.857021332 179.477676392
97 1 0.0 0.0 16.361223221 108.579032898
98 1 0.0 0.0 16.361223221 133.368759155
99 1 0.0 0.0 16.361223221 158.15852356
100 1 0.0 0.0 16.361223221 182.948242188
101 1 0.0 0.0 15.865428925 112.049591064
102 1 0.0 0.0 15.865428925 136.839324951
103 1 0.0 0.0 15.865428925 161.629058838
104 1 0.0 0.0 15.865428925 186.418807983
105 1 0.0 0.0 15.369634628 115.52015686
106 1 0.0 0.0 15.369634628 140.309890747
107 1 0.0 0.0 15.369634628 165.099624634
108 1 0.0 0.0 15.369634628 189.889373779
109 1 0.0 0.0 14.873840332 118.990722656
110 1 0.0 0.0 14.873840332 143.780456543
111 1 0.0 0.0 14.873840332 168.57019043
112 1 0.0 0.0 14.873840332 193.359939575
113 1 0.0 0.0 14.378046036 122.461280823
114 1 0.0 0.0 14.378046036 147.251022339
115 1 0.0 0.0 14.378046036 172.040786743
116 1 0.0 0.0 14.378046036 196.830490112
117 1 0.0 0.0 13.882250786 101.142105103
118 1 0.0 0.0 13.882250786 125.931846619
119 1 0.0 0.0 13.882250786 150.721572876
120 1 0.0 0.0 13.882250786 175.511322021
121 1 0.0 0.0 13.386454582 104.612670898
122 1 0.0 0.0 13.386454582 129.402404785
123 1 0.0 0.0 13.386454582 154.192169189
124 1 0.0 0.0 13.386454582 178.981887817
125 1 0.0 0.0 12.890660286 108.083236694
126 1 0.0 0.0 12.890660286 132.872970581
127 1 0.0 0.0 12.890660286 157.662704468
128 1 0.0 0.0 12.890660286 182.452453613
129 1 0.0 0.0 12.394866943 111.55380249
130 1 0.0 0.0 12.394866943 136.343536377
131 1 0.0 0.0 12.394866943 161.133270264
132 1 0.0 0.0 12.394866943 185.92300415
133 1 0.0 0.0 11.899072647 115.024360657
134 1 0.0 0.0 11.899072647 139.814102173
135 1 0.0 0.0 11.899072647 164.603820801
136 1 0.0 0.0 11.899072647 189.393585205
137 1 0.0 0.0 11.403278351 118.494918823
138 1 0.0 0.0 11.403278351 143.28465271
139 1 0.0 0.0 11.403278351 168.074386597
140 1 0.0 0.0 11.403278351 192.864120483
141 1 0.0 0.0 10.907483101 121.965492249
142 1 0.0 0.0 10.907483101 146.755218506
143 1 0.0 0.0 10.907483101 171.544952393
144 1 0.0 0.0 10.907483101 196.334716797
145 1 0.0 0.0 10.411688805 100.646316528
146 1 0.0 0.0 10.411688805 125.436050415
147 1 0.0 0.0 10.411688805 150.225784302
148 1 0.0 0.0 10.411688805 175.015518188
149 1 0.0 0.0 9.915892601 104.116874695
150 1 0.0 0.0 9.915892601 128.906616211
151 1 0.0 0.0 9.915892601 153.696334839
152 1 0.0 0.0 9.915892601 178.486099243
153 1 0.0 0.0 9.420098305 107.58744812
154 1 0.0 0.0 9.420098305 132.377182007
155 1 0.0 0.0 9.420098305 157.166915894
156 1 0.0 0.0 9.420098305 181.95664978
157 1 0.0 0.0 8.924304962 111.058006287
158 1 0.0 0.0 8.924304962 135.847747803
159 1 0.0 0.0 8.924304962 160.637466431
160 1 0.0 0.0 8.924304962 185.427230835
161 1 0.0 0.0 8.428506851 114.528564453
162 1 0.0 0.0 8.428506851 139.31829834
163 1 0.0 0.0 8.428506851 164.108032227
164 1 0.0 0.0 8.428506851 188.897766113
165 1 0.0 0.0 7.932713032 117.999137878
166 1 0.0 0.0 7.932713032 142.788879395
167 1 0.0 0.0 7.932713032 167.578598022
168 1 0.0 0.0 7.932713032 192.368362427
169 1 0.0 0.0 7.436918736 121.469696045
170 1 0.0 0.0 7.436918736 146.259429932
171 1 0.0 0.0 7.436918736 171.049163818
172 1 0.0 0.0 7.436918736 195.838897705
173 1 0.0 0.0 6.941124439 100.150520325
174 1 0.0 0.0 6.941124439 124.940254211
175 1 0.0 0.0 6.941124439 149.729980469
176 1 0.0 0.0 6.941124439 174.519729614
177 1 0.0 0.0 6.445330143 103.621078491
178 1 0.0 0.0 6.445330143 128.410827637
179 1 0.0 0.0 6.445330143 153.200561523
180 1 0.0 0.0 6.445330143 177.99029541
181 1 0.0 0.0 5.949536324 107.091651917
182 1 0.0 0.0 5.949536324 131.881393433
183 1 0.0 0.0 5.949536324 156.671112061
184 1 0.0 0.0 5.949536324 181.460845947
185 1 0.0 0.0 5.453742027 110.562210083
186 1 0.0 0.0 5.453742027 135.35194397
187 1 0.0 0.0 5.453742027 160.141677856
188 1 0.0 0.0 5.453742027 184.931411743
189 1 0.0 0.0 4.957946301 114.03276825
190 1 0.0 0.0 4.957946301 138.822525024
191 1 0.0 0.0 4.957946301 163.612243652
192 1 0.0 0.0 4.957946301 188.402008057
193 1 0.0 0.0 4.462152481 117.503326416
194 1 0.0 0.0 4.462152481 142.293060303
195 1 0.0 0.0 4.462152481 167.082794189
196 1 0.0 0.0 4.462152481 191.872543335
197 1 0.0 0.0 3.966357946 120.973899841
198 1 0.0 0.0 3.966357946 145.763656616
199 1 0.0 0.0 3.966357946 170.553375244
200 1 0.0 0.0 3.966357946 195.343109131
201 1 0.0 0.0 22.806556702 100.646316528
202 1 0.0 0.0 22.806556702 125.436050415
203 1 0.0 0.0 22.806556702 150.225784302
204 1 0.0 0.0 22.806556702 175.015518188
205 1 0.0 0.0 1.487384081 101.142105103
206 1 0.0 0.0 1.487384081 125.931846619
207 1 0.0 0.0 1.487384081 150.721572876
208 1 0.0 0.0 1.487384081 175.511322021
209 1 0.0 0.0 0.991589844 104.612670898
210 1 0.0 0.0 0.991589844 129.402404785
211 1 0.0 0.0 0.991589844 154.192169189
212 1 0.0 0.0 0.991589844 178.981887817
213 1 0.0 0.0 0.495795667 108.083236694
214 1 0.0 0.0 0.495795667 132.872970581
215 1 0.0 0.0 0.495795667 157.662704468
216 1 0.0 0.0 0.495795667 182.452453613
217 1 0.0 0.0 0.0 111.55380249
218 1 0.0 0.0 0.0 136.343536377
219 1 0.0 0.0 0.0 161.133270264
220 1 0.0 0.0 0.0 185.92300415
221 1 0.0 0.0 24.29393959 115.024360657
222 1 0.0 0.0 24.29393959 139.814102173
223 1 0.0 0.0 24.29393959 164.603820801
224 1 0.0 0.0 24.29393959 189.393585205
225 1 0.0 0.0 23.798145294 118.494934082
226 1 0.0 0.0 23.798145294 143.28465271
227 1 0.0 0.0 23.798145294 168.074386597
228 1 0.0 0.0 23.798145294 192.864120483
229 1 0.0 0.0 23.302350998 121.965492249
230 1 0.0 0.0 23.302350998 146.755218506
231 1 0.0 0.0 23.302350998 171.544952393
232 1 0.0 0.0 23.302350998 196.334716797
233 1 0.0 0.0 22.310762405 104.116874695
234 1 0.0 0.0 22.310762405 128.906616211
235 1 0.0 0.0 22.310762405 153.696334839
236 1 0.0 0.0 22.310762405 178.486099243
237 1 0.0 0.0 21.814966202 107.58744812
238 1 0.0 0.0 21.814966202 132.377182007
239 1 0.0 0.0 21.814966202 157.166915894
240 1 0.0 0.0 21.814966202 181.95664978
241 1 0.0 0.0 21.319171906 111.058006287
242 1 0.0 0.0 21.319171906 135.847747803
243 1 0.0 0.0 21.319171906 160.637466431
244 1 0.0 0.0 21.319171906 185.427230835
245 1 0.0 0.0 20.823377609 114.528564453
246 1 0.0 0.0 20.823377609 139.31829834
247 1 0.0 0.0 20.823377609 164.108032227
248 1 0.0 0.0 20.823377609 188.897766113
249 1 0.0 0.0 20.327581406 117.999137878
250 1 0.0 0.0 20.327581406 142.788879395
251 1 0.0 0.0 20.327581406 167.578598022
252 1 0.0 0.0 20.327581406 192.368362427
253 1 0.0 0.0 19.831787109 121.469696045
254 1 0.0 0.0 19.831787109 146.259429932
255 1 0.0 0.0 19.831787109 171.049163818
256 1 0.0 0.0 19.831787109 195.838897705
257 1 0.0 0.0 19.335990906 100.150520325
258 1 0.0 0.0 19.335990906 124.940254211
259 1 0.0 0.0 19.335990906 149.729980469
260 1 0.0 0.0 19.335990906 174.519729614
261 1 0.0 0.0 18.840196609 103.621078491
262 1 0.0 0.0 18.840196609 128.410827637
263 1 0.0 0.0 18.840196609 153.200561523
264 1 0.0 0.0 18.840196609 177.99029541
265 1 0.0 0.0 18.344402313 107.091651917
266 1 0.0 0.0 18.344402313 131.881393433
267 1 0.0 0.0 18.344402313 156.671112061
268 1 0.0 0.0 18.344402313 181.460845947
269 1 0.0 0.0 17.848609924 110.562210083
270 1 0.0 0.0 17.848609924 135.35194397
271 1 0.0 0.0 17.848609924 160.141677856
272 1 0.0 0.0 17.848609924 184.931411743
273 1 0.0 0.0 17.352815628 114.03276825
274 1 0.0 0.0 17.352815628 138.822525024
275 1 0.0 0.0 17.352815628 163.612243652
276 1 0.0 0.0 17.352815628 188.402008057
277 1 0.0 0.0 16.857021332 117.503326416
278 1 0.0 0.0 16.857021332 142.293060303
279 1 0.0 0.0 16.857021332 167.082794189
280 1 0.0 0.0 16.857021332 191.872543335
281 1 0.0 0.0 16.361227036 120.973899841
282 1 0.0 0.0 16.361227036 145.763656616
283 1 0.0 0.0 16.361227036 170.553375244
284 1 0.0 0.0 16.361227036 195.343109131
285 1 0.0 0.0 15.865428925 99.654724121
286 1 0.0 0.0 15.865428925 124.444458008
287 1 0.0 0.0 15.865428925 149.234191895
288 1 0.0 0.0 15.865428925 174.023910522
289 1 0.0 0.0 15.369634628 103.125282288
290 1 0.0 0.0 15.369634628 127.915023804
291 1 0.0 0.0 15.369634628 152.70475769
292 1 0.0 0.0 15.369634628 177.494491577
293 1 0.0 0.0 14.873840332 106.595855713
294 1 0.0 0.0 14.873840332 131.3855896
295 1 0.0 0.0 14.873840332 156.175323486
296 1 0.0 0.0 14.873840332 180.965057373
297 1 0.0 0.0 14.378045082 110.066413879
298 1 0.0 0.0 14.378045082 134.856170654
299 1 0.0 0.0 14.378045082 159.645889282
300 1 0.0 0.0 14.378045082 184.435623169
301 1 0.0 0.0 13.882250786 113.536979675
302 1 0.0 0.0 13.882250786 138.326705933
303 1 0.0 0.0 13.882250786 163.116455078
304 1 0.0 0.0 13.882250786 187.906173706
305 1 0.0 0.0 13.386454582 117.007545471
306 1 0.0 0.0 13.386454582 141.797302246
307 1 0.0 0.0 13.386454582 166.587020874
308 1 0.0 0.0 13.386454582 191.376754761
309 1 0.0 0.0 12.890660286 120.478103638
310 1 0.0 0.0 12.890660286 145.267837524
311 1 0.0 0.0 12.890660286 170.05758667
312 1 0.0 0.0 12.890660286 194.847305298
313 1 0.0 0.0 12.394866943 99.158935547
314 1 0.0 0.0 12.394866943 123.948669434
315 1 0.0 0.0 12.394866943 148.73840332
316 1 0.0 0.0 12.394866943 173.528137207
317 1 0.0 0.0 11.899072647 102.629493713
318 1 0.0 0.0 11.899072647 127.4192276
319 1 0.0 0.0 11.899072647 152.208969116
320 1 0.0 0.0 11.899072647 176.998703003
321 1 0.0 0.0 11.403278351 106.100059509
322 1 0.0 0.0 11.403278351 130.889785767
323 1 0.0 0.0 11.403278351 155.679519653
324 1 0.0 0.0 11.403278351 180.46925354
325 1 0.0 0.0 10.907483101 109.570625305
326 1 0.0 0.0 10.907483101 134.360351563
327 1 0.0 0.0 10.907483101 159.150100708
328 1 0.0 0.0 10.907483101 183.939819336
329 1 0.0 0.0 10.411688805 113.041183472
330 1 0.0 0.0 10.411688805 137.830917358
331 1 0.0 0.0 10.411688805 162.620651245
332 1 0.0 0.0 10.411688805 187.410385132
333 1 0.0 0.0 9.915894508 116.511741638
334 1 0.0 0.0 9.915894508 141.301467896
335 1 0.0 0.0 9.915894508 166.0912323
336 1 0.0 0.0 9.915894508 190.880950928
337 1 0.0 0.0 9.420098305 119.982315063
338 1 0.0 0.0 9.420098305 144.77204895
339 1 0.0 0.0 9.420098305 169.561782837
340 1 0.0 0.0 9.420098305 194.351516724
341 1 0.0 0.0 8.924304962 123.45287323
342 1 0.0 0.0 8.924304962 148.242614746
343 1 0.0 0.0 8.924304962 173.032363892
344 1 0.0 0.0 8.924304962 197.82208252
345 1 0.0 0.0 8.428510666 102.13369751
346 1 0.0 0.0 8.428510666 126.923431396
347 1 0.0 0.0 8.428510666 151.713165283
348 1 0.0 0.0 8.428510666 176.50289917
349 1 0.0 0.0 7.932713032 105.604270935
350 1 0.0 0.0 7.932713032 130.393997192
351 1 0.0 0.0 7.932713032 155.183746338
352 1 0.0 0.0 7.932713032 179.973464966
353 1 0.0 0.0 7.436918736 109.074829102
354 1 0.0 0.0 7.436918736 133.864562988
355 1 0.0 0.0 7.436918736 158.654296875
356 1 0.0 0.0 7.436918736 183.444030762
357 1 0.0 0.0 6.941124439 112.545387268
358 1 0.0 0.0 6.941124439 137.335113525
359 1 0.0 0.0 6.941124439 162.12487793
360 1 0.0 0.0 6.941124439 186.914596558
361 1 0.0 0.0 6.445330143 116.015960693
362 1 0.0 0.0 6.445330143 140.80569458
363 1 0.0 0.0 6.445330143 165.595428467
364 1 0.0 0.0 6.445330143 190.385162354
365 1 0.0 0.0 5.949536324 119.48651886
366 1 0.0 0.0 5.949536324 144.276245117
367 1 0.0 0.0 5.949536324 169.065979004
368 1 0.0 0.0 5.949536324 193.855728149
369 1 0.0 0.0 5.453742027 122.957077026
370 1 0.0 0.0 5.453742027 147.746810913
371 1 0.0 0.0 5.453742027 172.5365448
372 1 0.0 0.0 5.453742027 197.326278687
373 1 0.0 0.0 4.957946301 101.637901306
374 1 0.0 0.0 4.957946301 126.427635193
375 1 0.0 0.0 4.957946301 151.217391968
376 1 0.0 0.0 4.957946301 176.007095337
377 1 0.0 0.0 4.462152481 105.108459473
378 1 0.0 0.0 4.462152481 129.898193359
379 1 0.0 0.0 4.462152481 154.687927246
380 1 0.0 0.0 4.462152481 179.477676392
381 1 0.0 0.0 3.966357946 108.579032898
382 1 0.0 0.0 3.966357946 133.368759155
383 1 0.0 0.0 3.966357946 158.15852356
384 1 0.0 0.0 3.966357946 182.948242188
385 1 0.0 0.0 3.47056365 112.049591064
386 1 0.0 0.0 3.47056365 136.839324951
387 1 0.0 0.0 3.47056365 161.629058838
388 1 0.0 0.0 3.47056365 186.418807983
389 1 0.0 0.0 2.974768162 115.52015686
390 1 0.0 0.0 2.974768162 140.309890747
391 1 0.0 0.0 2.974768162 165.099624634
392 1 0.0 0.0 2.974768162 189.889373779
393 1 0.0 0.0 2.478972435 118.990722656
394 1 0.0 0.0 2.478972435 143.780456543
395 1 0.0 0.0 2.478972435 168.57019043
396 1 0.0 0.0 2.478972435 193.359939575
397 1 0.0 0.0 1.983178258 122.461280823
398 1 0.0 0.0 1.983178258 147.251022339
399 1 0.0 0.0 1.983178258 172.040786743
400 1 0.0 0.0 1.983178258 196.830490112
401 1 0.0 1.752898932 24.5418396 100.894218445
402 1 0.0 1.752898932 24.5418396 125.683952332
403 1 0.0 1.752898932 24.5418396 150.473678589
404 1 0.0 1.752898932 24.5418396 175.263412476
405 1 0.0 1.752898932 3.222665071 101.390014648
406 1 0.0 1.752898932 3.222665071 126.179748535
407 1 0.0 1.752898932 3.222665071 150.969482422
408 1 0.0 1.752898932 3.222665071 175.759216309
409 1 0.0 1.752898932 2.726871014 104.860572815
410 1 0.0 1.752898932 2.726871014 129.650314331
411 1 0.0 1.752898932 2.726871014 154.440032959
412 1 0.0 1.752898932 2.726871014 179.229797363
413 1 0.0 1.752898932 2.231076717 108.331130981
414 1 0.0 1.752898932 2.231076717 133.120864868
415 1 0.0 1.752898932 2.231076717 157.910598755
416 1 0.0 1.752898932 2.231076717 182.700332642
417 1 0.0 1.752898932 1.73528111 111.801704407
418 1 0.0 1.752898932 1.73528111 136.591415405
419 1 0.0 1.752898932 1.73528111 161.38117981
420 1 0.0 1.752898932 1.73528111 186.170928955
421 1 0.0 1.752898932 1.239487052 115.272262573
422 1 0.0 1.752898932 1.239487052 140.06199646
423 1 0.0 1.752898932 1.239487052 164.851730347
424 1 0.0 1.752898932 1.239487052 189.641464233
425 1 0.0 1.752898932 0.743692756 118.74282074
426 1 0.0 1.752898932 0.743692756 143.532546997
427 1 0.0 1.752898932 0.743692756 168.322311401
428 1 0.0 1.752898932 0.743692756 193.112030029
429 1 0.0 1.752898932 0.247895628 122.213378906
430 1 0.0 1.752898932 0.247895628 147.003128052
431 1 0.0 1.752898932 0.247895628 171.792861938
432 1 0.0 1.752898932 0.247895628 196.582595825
433 1 0.0 1.752898932 24.046045303 104.364776611
434 1 0.0 1.752898932 24.046045303 129.154510498
435 1 0.0 1.752898932 24.046045303 153.944244385
436 1 0.0 1.752898932 24.046045303 178.733978271
437 1 0.0 1.752898932 23.550247192 107.835334778
438 1 0.0 1.752898932 23.550247192 132.625091553
439 1 0.0 1.752898932 23.550247192 157.414810181
440 1 0.0 1.752898932 23.550247192 182.204574585
441 1 0.0 1.752898932 23.054452896 111.305892944
442 1 0.0 1.752898932 23.054452896 136.095626831
443 1 0.0 1.752898932 23.054452896 160.885360718
444 1 0.0 1.752898932 23.054452896 185.675109863
445 1 0.0 1.752898932 22.558656693 114.77646637
446 1 0.0 1.752898932 22.558656693 139.566192627
447 1 0.0 1.752898932 22.558656693 164.355941772
448 1 0.0 1.752898932 22.558656693 189.145675659
449 1 0.0 1.752898932 22.062862396 118.247024536
450 1 0.0 1.752898932 22.062862396 143.036758423
451 1 0.0 1.752898932 22.062862396 167.826477051
452 1 0.0 1.752898932 22.062862396 192.616241455
453 1 0.0 1.752898932 21.5670681 121.717590332
454 1 0.0 1.752898932 21.5670681 146.507324219
455 1 0.0 1.752898932 21.5670681 171.297058105
456 1 0.0 1.752898932 21.5670681 196.086791992
457 1 0.0 1.752898932 21.071273804 100.398422241
458 1 0.0 1.752898932 21.071273804 125.188156128
459 1 0.0 1.752898932 21.071273804 149.977890015
460 1 0.0 1.752898932 21.071273804 174.767623901
461 1 0.0 1.752898932 20.5754776 103.868980408
462 1 0.0 1.752898932 20.5754776 128.658737183
463 1 0.0 1.752898932 20.5754776 153.448455811
464 1 0.0 1.752898932 20.5754776 178.238220215
465 1 0.0 1.752898932 20.079683304 107.339538574
466 1 0.0 1.752898932 20.079683304 132.129272461
467 1 0.0 1.752898932 20.079683304 156.919006348
468 1 0.0 1.752898932 20.079683304 181.708740234
469 1 0.0 1.752898932 19.583889008 110.81010437
470 1 0.0 1.752898932 19.583889008 135.599868774
471 1 0.0 1.752898932 19.583889008 160.389587402
472 1 0.0 1.752898932 19.583889008 185.179321289
473 1 0.0 1.752898932 19.088094711 114.280670166
474 1 0.0 1.752898932 19.088094711 139.070404053
475 1 0.0 1.752898932 19.088094711 163.860122681
476 1 0.0 1.752898932 19.088094711 188.649887085
477 1 0.0 1.752898932 18.592300415 117.751235962
478 1 0.0 1.752898932 18.592300415 142.540969849
479 1 0.0 1.752898932 18.592300415 167.330703735
480 1 0.0 1.752898932 18.592300415 192.120437622
481 1 0.0 1.752898932 18.096506119 121.221794128
482 1 0.0 1.752898932 18.096506119 146.011535645
483 1 0.0 1.752898932 18.096506119 170.801254272
484 1 0.0 1.752898932 18.096506119 195.591018677
485 1 0.0 1.752898932 17.600711823 99.902618408
486 1 0.0 1.752898932 17.600711823 124.692352295
487 1 0.0 1.752898932 17.600711823 149.482086182
488 1 0.0 1.752898932 17.600711823 174.271820068
489 1 0.0 1.752898932 17.104915619 103.373191833
490 1 0.0 1.752898932 17.104915619 128.162918091
491 1 0.0 1.752898932 17.104915619 152.952667236
492 1 0.0 1.752898932 17.104915619 177.742385864
493 1 0.0 1.752898932 16.609121323 106.84375
494 1 0.0 1.752898932 16.609121323 131.633483887
495 1 0.0 1.752898932 16.609121323 156.423217773
496 1 0.0 1.752898932 16.609121323 181.21295166
497 1 0.0 1.752898932 16.113327026 110.314308167
498 1 0.0 1.752898932 16.113327026 135.104049683
499 1 0.0 1.752898932 16.113327026 159.893768311
500 1 0.0 1.752898932 16.113327026 184.683517456
501 1 0.0 1.752898932 15.617531776 113.784881592
502 1 0.0 1.752898932 15.617531776 138.57460022
503 1 0.0 1.752898932 15.617531776 163.364349365
504 1 0.0 1.752898932 15.617531776 188.154083252
505 1 0.0 1.752898932 15.12173748 117.255439758
506 1 0.0 1.752898932 15.12173748 142.045181274
507 1 0.0 1.752898932 15.12173748 166.834899902
508 1 0.0 1.752898932 15.12173748 191.624664307
509 1 0.0 1.752898932 14.625943184 120.725997925
510 1 0.0 1.752898932 14.625943184 145.515731812
511 1 0.0 1.752898932 14.625943184 170.305465698
512 1 0.0 1.752898932 14.625943184 195.095199585
513 1 0.0 1.752898932 14.130148888 99.406837463
514 1 0.0 1.752898932 14.130148888 124.19657135
515 1 0.0 1.752898932 14.130148888 148.986312866
516 1 0.0 1.752898932 14.130148888 173.776031494
517 1 0.0 1.752898932 13.63435173 102.87739563
518 1 0.0 1.752898932 13.63435173 127.667129517
519 1 0.0 1.752898932 13.63435173 152.456863403
520 1 0.0 1.752898932 13.63435173 177.24659729
521 1 0.0 1.752898932 13.138557434 106.347953796
522 1 0.0 1.752898932 13.138557434 131.137680054
523 1 0.0 1.752898932 13.138557434 155.927444458
524 1 0.0 1.752898932 13.138557434 180.717163086
525 1 0.0 1.752898932 12.642763138 109.818511963
526 1 0.0 1.752898932 12.642763138 134.608261108
527 1 0.0 1.752898932 12.642763138 159.397994995
528 1 0.0 1.752898932 12.642763138 184.187728882
529 1 0.0 1.752898932 12.146969795 113.289085388
530 1 0.0 1.752898932 12.146969795 138.078826904
531 1 0.0 1.752898932 12.146969795 162.868545532
532 1 0.0 1.752898932 12.146969795 187.658279419
533 1 0.0 1.752898932 11.651175499 116.759643555
534 1 0.0 1.752898932 11.651175499 141.549377441
535 1 0.0 1.752898932 11.651175499 166.339111328
536 1 0.0 1.752898932 11.651175499 191.128845215
537 1 0.0 1.752898932 11.155381203 120.230201721
538 1 0.0 1.752898932 11.155381203 145.019958496
539 1 0.0 1.752898932 11.155381203 169.809661865
540 1 0.0 1.752898932 11.155381203 194.599411011
541 1 0.0 1.752898932 10.659585953 123.700775146
542 1 0.0 1.752898932 10.659585953 148.490493774
543 1 0.0 1.752898932 10.659585953 173.28024292
544 1 0.0 1.752898932 10.659585953 198.069961548
545 1 0.0 1.752898932 10.163791656 102.381599426
546 1 0.0 1.752898932 10.163791656 127.171333313
547 1 0.0 1.752898932 10.163791656 151.961090088
548 1 0.0 1.752898932 10.163791656 176.750808716
549 1 0.0 1.752898932 9.667995453 105.852157593
550 1 0.0 1.752898932 9.667995453 130.641891479
551 1 0.0 1.752898932 9.667995453 155.431625366
552 1 0.0 1.752898932 9.667995453 180.221374512
553 1 0.0 1.752898932 9.172201157 109.322715759
554 1 0.0 1.752898932 9.172201157 134.112457275
555 1 0.0 1.752898932 9.172201157 158.902191162
556 1 0.0 1.752898932 9.172201157 183.691940308
557 1 0.0 1.752898932 8.676407814 112.793289185
558 1 0.0 1.752898932 8.676407814 137.583007813
559 1 0.0 1.752898932 8.676407814 162.372756958
560 1 0.0 1.752898932 8.676407814 187.162490845
561 1 0.0 1.752898932 8.18061161 116.263847351
562 1 0.0 1.752898932 8.18061161 141.053604126
563 1 0.0 1.752898932 8.18061161 165.843307495
564 1 0.0 1.752898932 8.18061161 190.633056641
565 1 0.0 1.752898932 7.684817314 119.734413147
566 1 0.0 1.752898932 7.684817314 144.524139404
567 1 0.0 1.752898932 7.684817314 169.31388855
568 1 0.0 1.752898932 7.684817314 194.103607178
569 1 0.0 1.752898932 7.189023018 123.204971313
570 1 0.0 1.752898932 7.189023018 147.994735718
571 1 0.0 1.752898932 7.189023018 172.784454346
572 1 0.0 1.752898932 7.189023018 197.574188232
573 1 0.0 1.752898932 6.693227291 101.885803223
574 1 0.0 1.752898932 6.693227291 126.675544739
575 1 0.0 1.752898932 6.693227291 151.465255737
576 1 0.0 1.752898932 6.693227291 176.255020142
577 1 0.0 1.752898932 6.197433472 105.356369019
578 1 0.0 1.752898932 6.197433472 130.146102905
579 1 0.0 1.752898932 6.197433472 154.935836792
580 1 0.0 1.752898932 6.197433472 179.725570679
581 1 0.0 1.752898932 5.701639175 108.826927185
582 1 0.0 1.752898932 5.701639175 133.616653442
583 1 0.0 1.752898932 5.701639175 158.406402588
584 1 0.0 1.752898932 5.701639175 183.196151733
585 1 0.0 1.752898932 5.205844879 112.297492981
586 1 0.0 1.752898932 5.205844879 137.087219238
587 1 0.0 1.752898932 5.205844879 161.876953125
588 1 0.0 1.752898932 5.205844879 186.666687012
589 1 0.0 1.752898932 4.71005106 115.768058777
590 1 0.0 1.752898932 4.71005106 140.557785034
591 1 0.0 1.752898932 4.71005106 165.34753418
592 1 0.0 1.752898932 4.71005106 190.137252808
593 1 0.0 1.752898932 4.214256287 119.238616943
594 1 0.0 1.752898932 4.214256287 144.02835083
595 1 0.0 1.752898932 4.214256287 168.818084717
596 1 0.0 1.752898932 4.214256287 193.607818604
597 1 0.0 1.752898932 3.718460798 122.70917511
598 1 0.0 1.752898932 3.718460798 147.498901367
599 1 0.0 1.752898932 3.718460798 172.288665771
600 1 0.0 1.752898932 3.718460798 197.078384399
601 1 0.0 1.752898932 23.054452896 123.700775146
602 1 0.0 1.752898932 23.054452896 148.490493774
603 1 0.0 1.752898932 23.054452896 173.28024292
604 1 0.0 1.752898932 23.054452896 198.069961548
605 1 0.0 1.752898932 1.73528111 99.406837463
606 1 0.0 1.752898932 1.73528111 124.19657135
607 1 0.0 1.752898932 1.73528111 148.986312866
608 1 0.0 1.752898932 1.73528111 173.776031494
609 1 0.0 1.752898932 1.239487052 102.87739563
610 1 0.0 1.752898932 1.239487052 127.667129517
611 1 0.0 1.752898932 1.239487052 152.456863403
612 1 0.0 1.752898932 1.239487052 177.24659729
613 1 0.0 1.752898932 0.743692756 106.347953796
614 1 0.0 1.752898932 0.743692756 131.137680054
615 1 0.0 1.752898932 0.743692756 155.927444458
616 1 0.0 1.752898932 0.743692756 180.717163086
617 1 0.0 1.752898932 0.247895628 109.818527222
618 1 0.0 1.752898932 0.247895628 134.608261108
619 1 0.0 1.752898932 0.247895628 159.397994995
620 1 0.0 1.752898932 0.247895628 184.187728882
621 1 0.0 1.752898932 24.5418396 113.289070129
622 1 0.0 1.752898932 24.5418396 138.078826904
623 1 0.0 1.752898932 24.5418396 162.868545532
624 1 0.0 1.752898932 24.5418396 187.658279419
625 1 0.0 1.752898932 24.046045303 116.759643555
626 1 0.0 1.752898932 24.046045303 141.549377441
627 1 0.0 1.752898932 24.046045303 166.339111328
628 1 0.0 1.752898932 24.046045303 191.128845215
629 1 0.0 1.752898932 23.550245285 120.230201721
630 1 0.0 1.752898932 23.550245285 145.019958496
631 1 0.0 1.752898932 23.550245285 169.809661865
632 1 0.0 1.752898932 23.550245285 194.599411011
633 1 0.0 1.752898932 22.558656693 102.381599426
634 1 0.0 1.752898932 22.558656693 127.171333313
635 1 0.0 1.752898932 22.558656693 151.961090088
636 1 0.0 1.752898932 22.558656693 176.750808716
637 1 0.0 1.752898932 22.062862396 105.852157593
638 1 0.0 1.752898932 22.062862396 130.641891479
639 1 0.0 1.752898932 22.062862396 155.431625366
640 1 0.0 1.752898932 22.062862396 180.221374512
641 1 0.0 1.752898932 21.5670681 109.322715759
642 1 0.0 1.752898932 21.5670681 134.112457275
643 1 0.0 1.752898932 21.5670681 158.902191162
644 1 0.0 1.752898932 21.5670681 183.691925049
645 1 0.0 1.752898932 21.071273804 112.793289185
646 1 0.0 1.752898932 21.071273804 137.583007813
647 1 0.0 1.752898932 21.071273804 162.372756958
648 1 0.0 1.752898932 21.071273804 187.162490845
649 1 0.0 1.752898932 20.5754776 116.263847351
650 1 0.0 1.752898932 20.5754776 141.053604126
651 1 0.0 1.752898932 20.5754776 165.843307495
652 1 0.0 1.752898932 20.5754776 190.633056641
653 1 0.0 1.752898932 20.079683304 119.734413147
654 1 0.0 1.752898932 20.079683304 144.524139404
655 1 0.0 1.752898932 20.079683304 169.31388855
656 1 0.0 1.752898932 20.079683304 194.103607178
657 1 0.0 1.752898932 19.583889008 123.204978943
658 1 0.0 1.752898932 19.583889008 147.994735718
659 1 0.0 1.752898932 19.583889008 172.784454346
660 1 0.0 1.752898932 19.583889008 197.574188232
661 1 0.0 1.752898932 19.088094711 101.885803223
662 1 0.0 1.752898932 19.088094711 126.675544739
663 1 0.0 1.752898932 19.088094711 151.465270996
664 1 0.0 1.752898932 19.088094711 176.255020142
665 1 0.0 1.752898932 18.592300415 105.356369019
666 1 0.0 1.752898932 18.592300415 130.146102905
667 1 0.0 1.752898932 18.592300415 154.935836792
668 1 0.0 1.752898932 18.592300415 179.725570679
669 1 0.0 1.752898932 18.096506119 108.826927185
670 1 0.0 1.752898932 18.096506119 133.616653442
671 1 0.0 1.752898932 18.096506119 158.406402588
672 1 0.0 1.752898932 18.096506119 183.196151733