# LAMMPS data file written by Ovito Basic 3.0.0-dev791
36 atoms
3 atom types
0.0 4.854432106 xlo xhi
0.0 5.7275600433 ylo yhi
0.0 14.7937030792 zlo zhi

Atoms  # charge

1 1 0.0 3.928342342 0.565842867 14.033913612
2 1 0.0 3.353305817 2.297937155 6.637061596
3 1 0.0 3.353305817 3.429623127 0.759789824
4 1 0.0 3.928342342 5.161716938 8.156641006
5 1 0.0 0.926089704 5.161716938 0.759789824
6 1 0.0 1.501126289 3.429623127 8.156641006
7 1 0.0 1.501126289 2.297937155 14.033913612
8 1 0.0 0.926089704 0.565842867 6.637061596
9 2 0.0 3.911827564 3.402668953 12.600935936
10 2 0.0 3.369820595 5.188671112 5.204084396
11 2 0.0 3.369820595 0.538888931 2.192766905
12 2 0.0 3.911827564 2.32489109 9.589618683
13 2 0.0 0.942604542 2.32489109 2.192766905
14 2 0.0 1.48461163 0.538888931 9.589618683
15 2 0.0 1.48461163 5.188671112 12.600935936
16 2 0.0 0.942604542 3.402668953 5.204084396
17 3 0.0 3.610949993 2.863780022 11.095277786
18 3 0.0 3.670698166 0.0 3.69842577
19 3 0.0 1.243482232 2.863780022 3.69842577
20 3 0.0 1.183733821 0.0 11.095277786
21 3 0.0 3.449738979 2.427861214 13.782524109
22 3 0.0 3.83190918 0.435918868 6.385672092
23 3 0.0 3.83190918 5.291641235 1.011179209
24 3 0.0 3.449738979 3.29969883 8.40803051
25 3 0.0 1.404693007 3.29969883 1.011179209
26 3 0.0 1.022523046 5.291641235 8.40803051
27 3 0.0 1.022523046 0.435918868 13.782524109
28 3 0.0 1.404693007 2.427861214 6.385672092
29 3 0.0 3.112132788 4.865155697 12.742763519
30 3 0.0 4.16951561 3.726184368 5.34591198
31 3 0.0 4.16951561 2.001375675 2.050939798
32 3 0.0 3.112132788 0.862404466 9.4477911
33 3 0.0 1.742299438 0.862404466 2.050939798
34 3 0.0 0.684916675 2.001375675 9.4477911
35 3 0.0 0.684916675 3.726184368 12.742763519
36 3 0.0 1.742299438 4.865155697 5.34591198
