# LAMMPS data file written by Ovito Basic 3.0.0-dev791
193 atoms
2 atom types
0.0 10.0772504807 xlo xhi
0.0 8.7271537781 ylo yhi
0.0 70.0 zlo zhi

Atoms  # charge

1 1 0.0 1.259656191 0.727259934 7.012891293
2 1 0.0 1.259656191 5.090837002 7.012891293
3 1 0.0 6.29828167 0.727259934 7.012891293
4 1 0.0 6.29828167 5.090837002 7.012891293
5 1 0.0 3.778968811 0.727259934 7.012891293
6 1 0.0 3.778968811 5.090837002 7.012891293
7 1 0.0 8.817594528 0.727259934 7.012891293
8 1 0.0 8.817594528 5.090837002 7.012891293
9 1 0.0 0.0 2.909048557 7.012891293
10 1 0.0 0.0 7.272625446 7.012891293
11 1 0.0 5.03862524 2.909048557 7.012891293
12 1 0.0 5.03862524 7.272625446 7.012891293
13 1 0.0 2.51931262 2.909048557 7.012891293
14 1 0.0 2.51931262 7.272625446 7.012891293
15 1 0.0 7.557937622 2.909048557 7.012891293
16 1 0.0 7.557937622 7.272625446 7.012891293
17 1 0.0 0.0 0.0 7.367181778
18 1 0.0 0.0 4.363576889 7.367181778
19 1 0.0 5.03862524 0.0 7.367181778
20 1 0.0 5.03862524 4.363576889 7.367181778
21 1 0.0 2.51931262 0.0 7.367181778
22 1 0.0 2.51931262 4.363576889 7.367181778
23 1 0.0 7.557937622 0.0 7.367181778
24 1 0.0 7.557937622 4.363576889 7.367181778
25 1 0.0 1.259655952 2.181788206 7.367181778
26 1 0.0 1.259655952 6.545365334 7.367181778
27 1 0.0 6.298280716 2.181788206 7.367181778
28 1 0.0 6.298280716 6.545365334 7.367181778
29 1 0.0 3.778968573 2.181788206 7.367181778
30 1 0.0 3.778968573 6.545365334 7.367181778
31 1 0.0 8.817594528 2.181788206 7.367181778
32 1 0.0 8.817594528 6.545365334 7.367181778
33 1 0.0 0.0 0.0 9.011288643
34 1 0.0 0.0 4.363576889 9.011288643
35 1 0.0 5.03862524 0.0 9.011288643
36 1 0.0 5.03862524 4.363576889 9.011288643
37 1 0.0 2.51931262 0.0 9.011288643
38 1 0.0 2.51931262 4.363576889 9.011288643
39 1 0.0 7.557937622 0.0 9.011288643
40 1 0.0 7.557937622 4.363576889 9.011288643
41 1 0.0 1.259655952 2.181788206 9.011288643
42 1 0.0 1.259655952 6.545365334 9.011288643
43 1 0.0 6.298280716 2.181788206 9.011288643
44 1 0.0 6.298280716 6.545365334 9.011288643
45 1 0.0 3.778968573 2.181788206 9.011288643
46 1 0.0 3.778968573 6.545365334 9.011288643
47 1 0.0 8.817594528 2.181788206 9.011288643
48 1 0.0 8.817594528 6.545365334 9.011288643
49 1 0.0 0.0 1.45452857 9.505043983
50 1 0.0 0.0 5.818105221 9.505043983
51 1 0.0 5.03862524 1.45452857 9.505043983
52 1 0.0 5.03862524 5.818105221 9.505043983
53 1 0.0 2.51931262 1.45452857 9.505043983
54 1 0.0 2.51931262 5.818105221 9.505043983
55 1 0.0 7.557937622 1.45452857 9.505043983
56 1 0.0 7.557937622 5.818105221 9.505043983
57 1 0.0 1.259655952 3.636316538 9.505043983
58 1 0.0 1.259655952 7.999893665 9.505043983
59 1 0.0 6.298280716 3.636316538 9.505043983
60 1 0.0 6.298280716 7.999893665 9.505043983
61 1 0.0 3.778968573 3.636316538 9.505043983
62 1 0.0 3.778968573 7.999893665 9.505043983
63 1 0.0 8.817594528 3.636316538 9.505043983
64 1 0.0 8.817594528 7.999893665 9.505043983
65 1 0.0 0.0 1.45452857 11.059473991
66 1 0.0 0.0 5.818105221 11.059473991
67 1 0.0 5.03862524 1.45452857 11.059473991
68 1 0.0 5.03862524 5.818105221 11.059473991
69 1 0.0 2.51931262 1.45452857 11.059473991
70 1 0.0 2.51931262 5.818105221 11.059473991
71 1 0.0 7.557937622 1.45452857 11.059473991
72 1 0.0 7.557937622 5.818105221 11.059473991
73 1 0.0 1.259655952 3.636316538 11.059473991
74 1 0.0 1.259655952 7.999893665 11.059473991
75 1 0.0 6.298280716 3.636316538 11.059473991
76 1 0.0 6.298280716 7.999893665 11.059473991
77 1 0.0 3.778968573 3.636316538 11.059473991
78 1 0.0 3.778968573 7.999893665 11.059473991
79 1 0.0 8.817594528 3.636316538 11.059473991
80 1 0.0 8.817594528 7.999893665 11.059473991
81 1 0.0 1.259656191 0.727259934 11.57043457
82 1 0.0 1.259656191 5.090837002 11.57043457
83 1 0.0 6.29828167 0.727259934 11.57043457
84 1 0.0 6.29828167 5.090837002 11.57043457
85 1 0.0 3.778968811 0.727259934 11.57043457
86 1 0.0 3.778968811 5.090837002 11.57043457
87 1 0.0 8.817594528 0.727259934 11.57043457
88 1 0.0 8.817594528 5.090837002 11.57043457
89 1 0.0 0.0 2.909048557 11.57043457
90 1 0.0 0.0 7.272625446 11.57043457
91 1 0.0 5.03862524 2.909048557 11.57043457
92 1 0.0 5.03862524 7.272625446 11.57043457
93 1 0.0 2.51931262 2.909048557 11.57043457
94 1 0.0 2.51931262 7.272625446 11.57043457
95 1 0.0 7.557937622 2.909048557 11.57043457
96 1 0.0 7.557937622 7.272625446 11.57043457
97 1 0.0 1.259656191 0.727259934 13.113632202
98 1 0.0 1.259656191 5.090837002 13.113632202
99 1 0.0 6.29828167 0.727259934 13.113632202
100 1 0.0 6.29828167 5.090837002 13.113632202
101 1 0.0 3.778968811 0.727259934 13.113632202
102 1 0.0 3.778968811 5.090837002 13.113632202
103 1 0.0 8.817594528 0.727259934 13.113632202
104 1 0.0 8.817594528 5.090837002 13.113632202
105 1 0.0 0.0 2.909048557 13.113632202
106 1 0.0 0.0 7.272625446 13.113632202
107 1 0.0 5.03862524 2.909048557 13.113632202
108 1 0.0 5.03862524 7.272625446 13.113632202
109 1 0.0 2.51931262 2.909048557 13.113632202
110 1 0.0 2.51931262 7.272625446 13.113632202
111 1 0.0 7.557937622 2.909048557 13.113632202
112 1 0.0 7.557937622 7.272625446 13.113632202
113 1 0.0 0.0 0.0 13.624568939
114 1 0.0 0.0 4.363576889 13.624568939
115 1 0.0 5.03862524 0.0 13.624568939
116 1 0.0 5.03862524 4.363576889 13.624568939
117 1 0.0 2.51931262 0.0 13.624568939
118 1 0.0 2.51931262 4.363576889 13.624568939
119 1 0.0 7.557937622 0.0 13.624568939
120 1 0.0 7.557937622 4.363576889 13.624568939
121 1 0.0 1.259655952 2.181788206 13.624568939
122 1 0.0 1.259655952 6.545365334 13.624568939
123 1 0.0 6.298280716 2.181788206 13.624568939
124 1 0.0 6.298280716 6.545365334 13.624568939
125 1 0.0 3.778968573 2.181788206 13.624568939
126 1 0.0 3.778968573 6.545365334 13.624568939
127 1 0.0 8.817594528 2.181788206 13.624568939
128 1 0.0 8.817594528 6.545365334 13.624568939
129 1 0.0 0.0 0.0 15.179022789
130 1 0.0 0.0 4.363576889 15.179022789
131 1 0.0 5.03862524 0.0 15.179022789
132 1 0.0 5.03862524 4.363576889 15.179022789
133 1 0.0 2.51931262 0.0 15.179022789
134 1 0.0 2.51931262 4.363576889 15.179022789
135 1 0.0 7.557937622 0.0 15.179022789
136 1 0.0 7.557937622 4.363576889 15.179022789
137 1 0.0 1.259655952 2.181788206 15.179022789
138 1 0.0 1.259655952 6.545365334 15.179022789
139 1 0.0 6.298280716 2.181788206 15.179022789
140 1 0.0 6.298280716 6.545365334 15.179022789
141 1 0.0 3.778968573 2.181788206 15.179022789
142 1 0.0 3.778968573 6.545365334 15.179022789
143 1 0.0 8.817594528 2.181788206 15.179022789
144 1 0.0 8.817594528 6.545365334 15.179022789
145 1 0.0 0.0 1.45452857 15.67277813
146 1 0.0 0.0 5.818105221 15.67277813
147 1 0.0 5.03862524 1.45452857 15.67277813
148 1 0.0 5.03862524 5.818105221 15.67277813
149 1 0.0 2.51931262 1.45452857 15.67277813
150 1 0.0 2.51931262 5.818105221 15.67277813
151 1 0.0 7.557937622 1.45452857 15.67277813
152 1 0.0 7.557937622 5.818105221 15.67277813
153 1 0.0 1.259655952 3.636316538 15.67277813
154 1 0.0 1.259655952 7.999893665 15.67277813
155 1 0.0 6.298280716 3.636316538 15.67277813
156 1 0.0 6.298280716 7.999893665 15.67277813
157 1 0.0 3.778968573 3.636316538 15.67277813
158 1 0.0 3.778968573 7.999893665 15.67277813
159 1 0.0 8.817594528 3.636316538 15.67277813
160 1 0.0 8.817594528 7.999893665 15.67277813
161 1 0.0 0.0 1.45452857 17.316860199
162 1 0.0 0.0 5.818105221 17.316860199
163 1 0.0 5.03862524 1.45452857 17.316860199
164 1 0.0 5.03862524 5.818105221 17.316860199
165 1 0.0 2.51931262 1.45452857 17.316860199
166 1 0.0 2.51931262 5.818105221 17.316860199
167 1 0.0 7.557937622 1.45452857 17.316860199
168 1 0.0 7.557937622 5.818105221 17.316860199
169 1 0.0 1.259655952 3.636316538 17.316860199
170 1 0.0 1.259655952 7.999893665 17.316860199
171 1 0.0 6.298280716 3.636316538 17.316860199
172 1 0.0 6.298280716 7.999893665 17.316860199
173 1 0.0 3.778968573 3.636316538 17.316860199
174 1 0.0 3.778968573 7.999893665 17.316860199
175 1 0.0 8.817594528 3.636316538 17.316860199
176 1 0.0 8.817594528 7.999893665 17.316860199
177 1 0.0 1.259656191 0.727259934 17.671175003
178 1 0.0 1.259656191 5.090837002 17.671175003
179 1 0.0 6.29828167 0.727259934 17.671175003
180 1 0.0 6.29828167 5.090837002 17.671175003
181 1 0.0 3.778968811 0.727259934 17.671175003
182 1 0.0 3.778968811 5.090837002 17.671175003
183 1 0.0 8.817594528 0.727259934 17.671175003
184 1 0.0 8.817594528 5.090837002 17.671175003
185 1 0.0 0.0 2.909048557 17.671175003
186 1 0.0 0.0 7.272625446 17.671175003
187 1 0.0 5.03862524 2.909048557 17.671175003
188 1 0.0 5.03862524 7.272625446 17.671175003
189 1 0.0 2.51931262 2.909048557 17.671175003
190 1 0.0 2.51931262 7.272625446 17.671175003
191 1 0.0 7.557937622 2.909048557 17.671175003
192 1 0.0 7.557937622 7.272625446 17.671175003
193 2 0.0 5.03862524 2.909048557 30.012891293
