# LAMMPS data file written by Ovito Basic 3.0.0-dev791
193 atoms
3 atom types
0.0 10.0772504807 xlo xhi
0.0 8.7271537781 ylo yhi
0.0 70.0 zlo zhi

Atoms  # charge

1 1 0.0 1.259656191 0.727259934 7.012891293
2 1 0.0 1.259656191 5.090837002 7.012891293
3 1 0.0 6.29828167 0.727259934 7.012891293
4 1 0.0 6.29828167 5.090837002 7.012891293
5 1 0.0 3.778968811 0.727259934 7.012891293
6 1 0.0 3.778968811 5.090837002 7.012891293
7 1 0.0 8.817594528 0.727259934 7.012891293
8 1 0.0 8.817594528 5.090837002 7.012891293
9 1 0.0 0.0 2.909048557 7.012891293
10 1 0.0 0.0 7.272625446 7.012891293
11 1 0.0 5.03862524 2.909048557 7.012891293
12 1 0.0 5.03862524 7.272625446 7.012891293
13 1 0.0 2.51931262 2.909048557 7.012891293
14 1 0.0 2.51931262 7.272625446 7.012891293
15 1 0.0 7.557937622 2.909048557 7.012891293
16 1 0.0 7.557937622 7.272625446 7.012891293
17 1 0.0 0.0 0.0 7.367181778
18 1 0.0 0.0 4.363576889 7.367181778
19 1 0.0 5.03862524 0.0 7.367181778
20 1 0.0 5.03862524 4.363576889 7.367181778
21 1 0.0 2.51931262 0.0 7.367181778
22 1 0.0 2.51931262 4.363576889 7.367181778
23 1 0.0 7.557937622 0.0 7.367181778
24 1 0.0 7.557937622 4.363576889 7.367181778
25 1 0.0 1.259655952 2.181788206 7.367181778
26 1 0.0 1.259655952 6.545365334 7.367181778
27 1 0.0 6.298280716 2.181788206 7.367181778
28 1 0.0 6.298280716 6.545365334 7.367181778
29 1 0.0 3.778968573 2.181788206 7.367181778
30 1 0.0 3.778968573 6.545365334 7.367181778
31 1 0.0 8.817594528 2.181788206 7.367181778
32 1 0.0 8.817594528 6.545365334 7.367181778
33 1 0.0 0.0 0.0 9.011288643
34 1 0.0 0.0 4.363576889 9.011288643
35 1 0.0 5.03862524 0.0 9.011288643
36 1 0.0 5.03862524 4.363576889 9.011288643
37 1 0.0 2.51931262 0.0 9.011288643
38 1 0.0 2.51931262 4.363576889 9.011288643
39 1 0.0 7.557937622 0.0 9.011288643
40 1 0.0 7.557937622 4.363576889 9.011288643
41 1 0.0 1.259655952 2.181788206 9.011288643
42 1 0.0 1.259655952 6.545365334 9.011288643
43 1 0.0 6.298280716 2.181788206 9.011288643
44 1 0.0 6.298280716 6.545365334 9.011288643
45 1 0.0 3.778968573 2.181788206 9.011288643
46 1 0.0 3.778968573 6.545365334 9.011288643
47 1 0.0 8.817594528 2.181788206 9.011288643
48 1 0.0 8.817594528 6.545365334 9.011288643
49 1 0.0 0.0 1.45452857 9.505043983
50 1 0.0 0.0 5.818105221 9.505043983
51 1 0.0 5.03862524 1.45452857 9.505043983
52 1 0.0 5.03862524 5.818105221 9.505043983
53 1 0.0 2.51931262 1.45452857 9.505043983
54 1 0.0 2.51931262 5.818105221 9.505043983
55 1 0.0 7.557937622 1.45452857 9.505043983
56 1 0.0 7.557937622 5.818105221 9.505043983
57 1 0.0 1.259655952 3.636316538 9.505043983
58 1 0.0 1.259655952 7.999893665 9.505043983
59 1 0.0 6.298280716 3.636316538 9.505043983
60 1 0.0 6.298280716 7.999893665 9.505043983
61 1 0.0 3.778968573 3.636316538 9.505043983
62 1 0.0 3.778968573 7.999893665 9.505043983
63 1 0.0 8.817594528 3.636316538 9.505043983
64 1 0.0 8.817594528 7.999893665 9.505043983
65 2 0.0 0.0 1.45452857 11.059473991
66 2 0.0 0.0 5.818105221 11.059473991
67 2 0.0 5.03862524 1.45452857 11.059473991
68 2 0.0 5.03862524 5.818105221 11.059473991
69 2 0.0 2.51931262 1.45452857 11.059473991
70 2 0.0 2.51931262 5.818105221 11.059473991
71 2 0.0 7.557937622 1.45452857 11.059473991
72 2 0.0 7.557937622 5.818105221 11.059473991
73 2 0.0 1.259655952 3.636316538 11.059473991
74 2 0.0 1.259655952 7.999893665 11.059473991
75 2 0.0 6.298280716 3.636316538 11.059473991
76 2 0.0 6.298280716 7.999893665 11.059473991
77 2 0.0 3.778968573 3.636316538 11.059473991
78 2 0.0 3.778968573 7.999893665 11.059473991
79 2 0.0 8.817594528 3.636316538 11.059473991
80 2 0.0 8.817594528 7.999893665 11.059473991
81 2 0.0 1.259656191 0.727259934 11.57043457
82 2 0.0 1.259656191 5.090837002 11.57043457
83 2 0.0 6.29828167 0.727259934 11.57043457
84 2 0.0 6.29828167 5.090837002 11.57043457
85 2 0.0 3.778968811 0.727259934 11.57043457
86 2 0.0 3.778968811 5.090837002 11.57043457
87 2 0.0 8.817594528 0.727259934 11.57043457
88 2 0.0 8.817594528 5.090837002 11.57043457
89 2 0.0 0.0 2.909048557 11.57043457
90 2 0.0 0.0 7.272625446 11.57043457
91 2 0.0 5.03862524 2.909048557 11.57043457
92 2 0.0 5.03862524 7.272625446 11.57043457
93 2 0.0 2.51931262 2.909048557 11.57043457
94 2 0.0 2.51931262 7.272625446 11.57043457
95 2 0.0 7.557937622 2.909048557 11.57043457
96 2 0.0 7.557937622 7.272625446 11.57043457
97 2 0.0 1.259656191 0.727259934 13.113632202
98 2 0.0 1.259656191 5.090837002 13.113632202
99 2 0.0 6.29828167 0.727259934 13.113632202
100 2 0.0 6.29828167 5.090837002 13.113632202
101 2 0.0 3.778968811 0.727259934 13.113632202
102 2 0.0 3.778968811 5.090837002 13.113632202
103 2 0.0 8.817594528 0.727259934 13.113632202
104 2 0.0 8.817594528 5.090837002 13.113632202
105 2 0.0 0.0 2.909048557 13.113632202
106 2 0.0 0.0 7.272625446 13.113632202
107 2 0.0 5.03862524 2.909048557 13.113632202
108 2 0.0 5.03862524 7.272625446 13.113632202
109 2 0.0 2.51931262 2.909048557 13.113632202
110 2 0.0 2.51931262 7.272625446 13.113632202
111 2 0.0 7.557937622 2.909048557 13.113632202
112 2 0.0 7.557937622 7.272625446 13.113632202
113 2 0.0 0.0 0.0 13.624568939
114 2 0.0 0.0 4.363576889 13.624568939
115 2 0.0 5.03862524 0.0 13.624568939
116 2 0.0 5.03862524 4.363576889 13.624568939
117 2 0.0 2.51931262 0.0 13.624568939
118 2 0.0 2.51931262 4.363576889 13.624568939
119 2 0.0 7.557937622 0.0 13.624568939
120 2 0.0 7.557937622 4.363576889 13.624568939
121 2 0.0 1.259655952 2.181788206 13.624568939
122 2 0.0 1.259655952 6.545365334 13.624568939
123 2 0.0 6.298280716 2.181788206 13.624568939
124 2 0.0 6.298280716 6.545365334 13.624568939
125 2 0.0 3.778968573 2.181788206 13.624568939
126 2 0.0 3.778968573 6.545365334 13.624568939
127 2 0.0 8.817594528 2.181788206 13.624568939
128 2 0.0 8.817594528 6.545365334 13.624568939
129 2 0.0 0.0 0.0 15.179022789
130 2 0.0 0.0 4.363576889 15.179022789
131 2 0.0 5.03862524 0.0 15.179022789
132 2 0.0 5.03862524 4.363576889 15.179022789
133 2 0.0 2.51931262 0.0 15.179022789
134 2 0.0 2.51931262 4.363576889 15.179022789
135 2 0.0 7.557937622 0.0 15.179022789
136 2 0.0 7.557937622 4.363576889 15.179022789
137 2 0.0 1.259655952 2.181788206 15.179022789
138 2 0.0 1.259655952 6.545365334 15.179022789
139 2 0.0 6.298280716 2.181788206 15.179022789
140 2 0.0 6.298280716 6.545365334 15.179022789
141 2 0.0 3.778968573 2.181788206 15.179022789
142 2 0.0 3.778968573 6.545365334 15.179022789
143 2 0.0 8.817594528 2.181788206 15.179022789
144 2 0.0 8.817594528 6.545365334 15.179022789
145 2 0.0 0.0 1.45452857 15.67277813
146 2 0.0 0.0 5.818105221 15.67277813
147 2 0.0 5.03862524 1.45452857 15.67277813
148 2 0.0 5.03862524 5.818105221 15.67277813
149 2 0.0 2.51931262 1.45452857 15.67277813
150 2 0.0 2.51931262 5.818105221 15.67277813
151 2 0.0 7.557937622 1.45452857 15.67277813
152 2 0.0 7.557937622 5.818105221 15.67277813
153 2 0.0 1.259655952 3.636316538 15.67277813
154 2 0.0 1.259655952 7.999893665 15.67277813
155 2 0.0 6.298280716 3.636316538 15.67277813
156 2 0.0 6.298280716 7.999893665 15.67277813
157 2 0.0 3.778968573 3.636316538 15.67277813
158 2 0.0 3.778968573 7.999893665 15.67277813
159 2 0.0 8.817594528 3.636316538 15.67277813
160 2 0.0 8.817594528 7.999893665 15.67277813
161 2 0.0 0.0 1.45452857 17.316860199
162 2 0.0 0.0 5.818105221 17.316860199
163 2 0.0 5.03862524 1.45452857 17.316860199
164 2 0.0 5.03862524 5.818105221 17.316860199
165 2 0.0 2.51931262 1.45452857 17.316860199
166 2 0.0 2.51931262 5.818105221 17.316860199
167 2 0.0 7.557937622 1.45452857 17.316860199
168 2 0.0 7.557937622 5.818105221 17.316860199
169 2 0.0 1.259655952 3.636316538 17.316860199
170 2 0.0 1.259655952 7.999893665 17.316860199
171 2 0.0 6.298280716 3.636316538 17.316860199
172 2 0.0 6.298280716 7.999893665 17.316860199
173 2 0.0 3.778968573 3.636316538 17.316860199
174 2 0.0 3.778968573 7.999893665 17.316860199
175 2 0.0 8.817594528 3.636316538 17.316860199
176 2 0.0 8.817594528 7.999893665 17.316860199
177 2 0.0 1.259656191 0.727259934 17.671175003
178 2 0.0 1.259656191 5.090837002 17.671175003
179 2 0.0 6.29828167 0.727259934 17.671175003
180 2 0.0 6.29828167 5.090837002 17.671175003
181 2 0.0 3.778968811 0.727259934 17.671175003
182 2 0.0 3.778968811 5.090837002 17.671175003
183 2 0.0 8.817594528 0.727259934 17.671175003
184 2 0.0 8.817594528 5.090837002 17.671175003
185 2 0.0 0.0 2.909048557 17.671175003
186 2 0.0 0.0 7.272625446 17.671175003
187 2 0.0 5.03862524 2.909048557 17.671175003
188 2 0.0 5.03862524 7.272625446 17.671175003
189 2 0.0 2.51931262 2.909048557 17.671175003
190 2 0.0 2.51931262 7.272625446 17.671175003
191 2 0.0 7.557937622 2.909048557 17.671175003
192 2 0.0 7.557937622 7.272625446 17.671175003
193 3 0.0 5.03862524 2.909048557 30.012891293
