# LAMMPS data file written by Ovito Basic 3.0.0-dev791
8 atoms
2 atom types
0.0 3.9406182766 xlo xhi
0.0 6.8253512383 ylo yhi
0.0 6.5087308884 zlo zhi

Atoms  # charge

1 1 0.0 0.0 2.275117159 2.437910318
2 1 0.0 1.9703089 5.687792778 2.437910318
3 1 0.0 1.970309377 1.137558579 5.692275524
4 1 0.0 0.0 4.550234318 5.692275524
5 2 0.0 0.0 2.275117159 0.002857333
6 2 0.0 1.9703089 5.687792778 0.002857333
7 2 0.0 1.970309377 1.137558579 3.257222652
8 2 0.0 0.0 4.550234318 3.257222652
