LAMMPS data file via write_data, version 12 Dec 2018, timestep = 16800000

6480 atoms
3 atom types

8.2074298209566933e+01 1.2322570179043362e+02 xlo xhi
8.2074298209566933e+01 1.2322570179043362e+02 ylo yhi
8.2074298209566933e+01 1.2322570179043362e+02 zlo zhi

Masses

1 14
2 12
3 1.008

Atoms # charge

4984 2 -8.5005285369767897e-02 8.4954415839828414e+01 8.4121351937116557e+01 8.6412665499717576e+01 0 1 0
4985 2 -4.6093219651094912e-02 8.4978709145731187e+01 8.5543664288687935e+01 8.6402186347266067e+01 0 1 0
5857 3 2.3884149784009392e-01 8.7553512603217342e+01 8.7532072783560594e+01 8.5791447545028987e+01 0 0 0
4983 2 1.1199264679032479e-01 8.4357507700422644e+01 8.3694950590816816e+01 8.5191007458311262e+01 0 1 0
4982 1 -4.8398063923465434e-01 8.4012497027551689e+01 8.4956463162614341e+01 8.4478675334119743e+01 0 1 0
1716 3 5.5717650456980974e-02 8.6354758479341029e+01 8.5373923275336381e+01 8.9222367426405242e+01 0 0 0
1713 2 -6.2915777226114605e-02 8.6607181871128788e+01 8.4887970759067741e+01 9.0146143062122590e+01 0 0 0
1714 2 1.2718956609913024e-01 8.7304490861884418e+01 8.3618185739174237e+01 9.0276927229832438e+01 0 0 0
1574 2 -5.5601311918369423e-02 8.3292061442612976e+01 8.5335581526690788e+01 9.0710042659922351e+01 0 1 0
4986 2 1.0767424776474979e-01 8.4309040682403662e+01 8.6103419185596351e+01 8.5275710190792154e+01 0 1 0
4988 3 3.2198050545145053e-02 8.5443115511769179e+01 8.6111753236941226e+01 8.7150504885536222e+01 0 1 0
4994 2 1.0537926345112768e-01 8.4020057308724290e+01 8.7473694763344682e+01 8.4959327728328333e+01 0 1 0
1712 2 -4.4222954260919115e-02 8.6312163158152487e+01 8.5379468529714046e+01 9.1406889130651678e+01 0 0 0
1725 3 2.1178913764492421e-01 8.7856630176336580e+01 8.4333150491499794e+01 8.7483729278707614e+01 0 0 0
5849 3 2.5474691474173716e-01 8.6940142364759282e+01 8.5898677409538607e+01 8.3604544194079594e+01 0 0 0
1573 2 9.8552000122806752e-02 8.2775056902501490e+01 8.5131072874634938e+01 8.9384669794609451e+01 0 1 0
1577 3 5.0714011309146656e-02 8.3128706173043767e+01 8.6271255353496301e+01 9.1241796539193430e+01 0 1 0
1575 2 -5.6139817448380355e-02 8.3847893567030468e+01 8.4167864034371391e+01 9.1250532205259375e+01 0 1 0
4987 3 1.1269875250209120e-01 8.5351064029386819e+01 8.3492529982126925e+01 8.7167982762481714e+01 0 1 0
1572 1 -4.4818940729529083e-01 8.3215260741059410e+01 8.3778505335585336e+01 8.9090201109353558e+01 0 1 0
1731 3 7.9238911181971156e-02 8.7629129580064358e+01 8.3933378533485794e+01 8.4936834160273506e+01 0 0 0
1715 3 2.7935977544375351e-02 8.5776010946431413e+01 8.6348118757375715e+01 9.1649438455503812e+01 0 0 0
4993 2 -6.7770393011006874e-02 8.3404242681675697e+01 8.7871771301881296e+01 8.3726901558692305e+01 0 1 0
1576 2 1.0406135802488840e-01 8.3796663247983773e+01 8.3106618675577238e+01 9.0283287893108337e+01 0 1 0
5863 3 6.1493168995079318e-03 8.6781370455896379e+01 8.8714825044417736e+01 8.7956148890617925e+01 0 0 0
5860 2 -5.1490742799556691e-02 8.7629514424183085e+01 8.8853039538143449e+01 8.8603412524736441e+01 0 0 0
1710 1 -4.5190936735624349e-01 8.7407099419123156e+01 8.3326539973409240e+01 9.1678210663740344e+01 0 0 0
1579 3 2.3108787289796939e-01 8.2835201588643997e+01 8.3284119175998285e+01 8.8145047906814554e+01 0 1 0
4975 2 1.1945502152274269e-01 8.4050935930187393e+01 8.2383000534494954e+01 8.4771427740935010e+01 0 1 0
5842 1 -4.7785089337251446e-01 8.7951086424675012e+01 8.5825829312085162e+01 8.3159194876373732e+01 0 0 0
4989 3 2.3814260472907101e-01 8.3352539263923703e+01 8.4960946983238756e+01 8.3577533154050542e+01 0 1 0
4996 3 3.8876576514348463e-02 8.2961301426177741e+01 8.7263851016157872e+01 8.3011065957715701e+01 0 1 0
1718 1 -4.3815699321184265e-01 8.7739106608078330e+01 8.3222592093056662e+01 8.7746979609301761e+01 0 0 0
5850 1 -4.5383725319343371e-01 8.8664528904448943e+01 8.7452968211785418e+01 8.5884323460102962e+01 0 0 0
1719 2 1.0881031783274009e-01 8.8578675622692046e+01 8.2269544805408017e+01 8.7039387128761561e+01 0 0 0
1728 2 -6.1191260139670793e-02 8.8230667384384859e+01 8.3057241913876354e+01 8.4698655905852547e+01 0 0 0
4979 3 3.7191224107845047e-02 8.3042894837335425e+01 8.2821988579208139e+01 8.2770364078149129e+01 0 1 0
1722 2 1.0376486261175685e-01 8.7834621734603161e+01 8.2891585812950623e+01 8.9182428564689587e+01 0 0 0
1732 3 8.4058585745952291e-02 8.8326223088835647e+01 8.3303518727613550e+01 8.2482417818972024e+01 0 0 0
4997 3 2.1305405914031625e-01 8.4806050176838767e+01 8.8732617158019750e+01 8.6727667623244656e+01 0 1 0
4990 1 -4.4024698106221366e-01 8.4352012888380187e+01 8.8688766423652936e+01 8.5661722959961907e+01 0 1 0
1578 3 6.5758543902834005e-02 8.4222757038703293e+01 8.4112911835419240e+01 9.2268293275244019e+01 0 1 0
3563 3 2.0938509413277973e-01 8.4350415563362077e+01 8.8740551415331737e+01 9.1446239336421982e+01 0 0 0
3553 3 4.6988353245270814e-02 8.6690831483677073e+01 8.8041568909636666e+01 9.2139136422826567e+01 0 0 0
1581 2 9.9943921124702018e-02 8.2188162728849761e+01 8.6119595353313031e+01 8.8559985459293145e+01 0 1 0
1729 2 -6.3903831533255975e-02 8.8614710707408378e+01 8.2717824771167002e+01 8.3362442063903188e+01 0 0 0
1717 3 2.3305369148598751e-01 8.8049049239960667e+01 8.2568104357823117e+01 9.2220643638452103e+01 0 0 0
3157 3 6.2329133152536999e-02 8.8831238041961896e+01 8.5638020101603104e+01 9.0069511537522430e+01 0 0 0
1727 2 1.1138068696633124e-01 8.8833465489998318e+01 8.2207217081559548e+01 8.5621182823598915e+01 0 0 0
4976 2 -6.7261749807677393e-02 8.3298471247913980e+01 8.2117232337651430e+01 8.3545679131607571e+01 0 1 0
1587 3 2.1741704828075178e-01 8.2437963525929035e+01 8.8045876703399387e+01 8.9759649153940359e+01 0 1 0
5838 3 4.5828150087081729e-02 8.5324290083585865e+01 8.4508958000676500e+01 8.2204501110940456e+01 0 0 0
3159 3 2.3017116495292633e-01 9.2702879468340782e+01 8.6239114050893207e+01 9.2101930523160917e+01 0 0 0
5859 2 1.1880875329878129e-01 8.8993983990638242e+01 8.8535818354092697e+01 8.8284973785064452e+01 0 0 0
5846 2 1.1935322153480277e-01 8.9220281639647169e+01 8.6430020358545249e+01 8.3608084870615187e+01 0 0 0
3130 2 -3.2613338032155985e-02 9.4914369460887158e+01 8.4104890541659742e+01 8.2171812122068090e+01 0 0 0
643 2 -7.8891675928724425e-02 9.1375581860256489e+01 8.2531838623267149e+01 9.1485004652120196e+01 0 0 0
5851 2 8.5704243095421254e-02 8.9451716003456198e+01 8.8034215521209347e+01 8.7025690899361990e+01 0 0 0
5854 2 1.1084655520684135e-01 8.9573699113721105e+01 8.7138318661253905e+01 8.4778406180462085e+01 0 0 0
2061 2 -6.7300102886765759e-02 9.4079466328903877e+01 8.8270978120945699e+01 8.3136689766977739e+01 0 0 0
5853 2 -6.2850381722253920e-02 9.0860650130104617e+01 8.7572201905579917e+01 8.5199357704709470e+01 0 0 0
5852 2 -5.6174518221531598e-02 9.0794809475039798e+01 8.8042041623060967e+01 8.6523464099275117e+01 0 0 0
3142 3 8.0863626077171569e-02 8.9998850979985832e+01 8.4490707858958970e+01 8.5441993126337792e+01 0 0 0
3139 2 -5.2166052680520103e-02 9.1007620929834971e+01 8.4416747427090570e+01 8.5081563558580854e+01 0 0 0
3138 2 -6.2960283678748841e-02 9.1381161976713216e+01 8.4107407957887958e+01 8.3768963847288205e+01 0 0 0
5856 3 6.8202013459355074e-02 9.1780986850326912e+01 8.7476777657024556e+01 8.4584792498810089e+01 0 0 0
3144 1 -4.4449942935646497e-01 9.1041519078665019e+01 8.5428178834409835e+01 8.8084944734362509e+01 0 0 0
3151 3 2.5134963306739966e-01 9.0051999088592922e+01 8.5831645753158170e+01 8.7795517683019014e+01 0 0 0
3140 2 1.1799916113524107e-01 9.2164554883570119e+01 8.4889784609469785e+01 8.5795403994138482e+01 0 0 0
3148 2 1.1814058727781739e-01 9.2169372281313727e+01 8.5338573995637077e+01 8.7126329133297801e+01 0 0 0
3145 2 9.7457641099861783e-02 9.1609782988177244e+01 8.5944495670105340e+01 8.9377234381501140e+01 0 0 0
3153 2 1.1108106460038845e-01 9.0954369261323109e+01 8.6140407033939084e+01 9.0608237296748413e+01 0 0 0
3154 2 -4.2783397124804876e-02 8.9565718937364721e+01 8.5889589424622173e+01 9.0841945921322505e+01 0 0 0
3147 2 -5.3946983805308754e-02 9.3319874315249166e+01 8.5796919127659677e+01 8.7819502002024748e+01 0 0 0
3136 1 -4.4775617954113772e-01 9.3291979511178468e+01 8.4741258790502755e+01 8.4837276460382057e+01 0 0 0
3137 2 1.2040987015129168e-01 9.2796587396455863e+01 8.4361804989855173e+01 8.3563196073357020e+01 0 0 0
3146 2 -4.8627260269804504e-02 9.2988277162914116e+01 8.6176355962482134e+01 8.9129543940879714e+01 0 0 0
3149 3 2.4800586660128465e-02 9.3613845746303497e+01 8.6656501174555501e+01 8.9891337307705442e+01 0 0 0
3150 3 4.0370423746118378e-02 9.4281723121171410e+01 8.5876845596995338e+01 8.7406472346605383e+01 0 0 0
3143 3 2.4160541219149820e-01 9.4257355951142074e+01 8.5329225956900558e+01 8.4897583745215826e+01 0 0 0
2059 2 1.0758908942521013e-01 9.4580871296357998e+01 8.8524559663922233e+01 8.5431378052641989e+01 0 0 0
645 3 5.2968779146787964e-02 9.3069601908752915e+01 8.3944061004610049e+01 9.0744076979427462e+01 0 0 0
642 2 -3.2403597705444778e-02 9.2467324134487384e+01 8.3459106522799615e+01 9.1617133776935034e+01 0 0 0
3141 3 8.8410325812708440e-02 9.0686805699604747e+01 8.3756070047859296e+01 8.3044080864511812e+01 0 0 0
5855 3 7.5818342314244100e-02 9.1620628802832684e+01 8.8486123522142719e+01 8.7046613489079249e+01 0 0 0
2064 3 3.6403496792890351e-02 9.3581988452744881e+01 8.8388642880048636e+01 8.2206348863049300e+01 0 0 0
2062 2 1.1026765279936267e-01 9.5298319221660051e+01 8.7558834610593053e+01 8.3364016708381129e+01 0 0 0
5845 2 -5.5839753041719967e-02 9.0105099273193119e+01 8.6358286864857661e+01 8.2486727131126429e+01 0 0 0
2060 2 -6.3230329004468386e-02 9.3678306162051925e+01 8.8852120938004518e+01 8.4384540506778308e+01 0 0 0
5670 3 3.4901125545760990e-02 9.4599117863736168e+01 8.3808443400438549e+01 8.8712386646178885e+01 0 0 0
646 3 5.9591144534535248e-02 9.0872008950277277e+01 8.2256378748472230e+01 9.0560177931184796e+01 0 0 0
3133 3 7.1302403705796907e-02 9.5616142921430907e+01 8.4171716248406383e+01 8.2977534279757805e+01 0 0 0
5848 3 4.9885547694939747e-02 9.1153914720316052e+01 8.6695666826884349e+01 8.2518827339354374e+01 0 0 0
3129 2 1.1566151624556344e-01 9.3489260065977277e+01 8.4232025332120486e+01 8.2317513556948469e+01 0 0 0
2058 1 -4.5316761817833784e-01 9.5615918194873629e+01 8.7746812625253796e+01 8.4766128067440036e+01 0 0 0
639 3 2.4263383662313703e-01 9.4734481221685300e+01 8.5658963271283099e+01 9.1625996394990040e+01 0 0 0
5666 2 1.3214938145621255e-01 9.5479921406909213e+01 8.3863257172954249e+01 8.9369865766955229e+01 0 0 0
2068 2 -5.3898592315859306e-02 9.5602510102118998e+01 8.8835759775751683e+01 8.7725336573560270e+01 0 0 0
3152 1 -4.4582654571603242e-01 9.1572120376678015e+01 8.6407896749195942e+01 9.1947064005993340e+01 0 0 0
5665 2 -7.6775919922752067e-02 9.5690565816875022e+01 8.3134524194677425e+01 9.0522023565216529e+01 0 0 0
5668 3 8.2251526002200759e-02 9.4979904671600821e+01 8.2355744027513964e+01 9.0929722462922669e+01 0 0 0
3155 2 -7.2206457470053234e-02 8.9301711833055521e+01 8.5976234152441279e+01 9.2232190738792767e+01 0 0 0
3786 2 -7.5007636457174967e-02 1.0049143562016332e+02 8.2078198296206963e+01 8.2444429349196469e+01 0 0 0
2054 2 9.5917136555054336e-02 9.6057375219588224e+01 8.6886015362717572e+01 8.2371662928100861e+01 0 0 0
5662 1 -4.3768221358777232e-01 9.6360573358556550e+01 8.4794542764517459e+01 8.9095821333825697e+01 0 0 0
5669 3 2.0317901211400841e-01 9.6342257705698003e+01 8.5594278302336619e+01 8.8275006414070589e+01 0 0 0
2053 2 -6.0183019383849047e-02 9.7364675936320097e+01 8.6390944718073001e+01 8.2624488765109632e+01 0 0 0
2071 3 1.9600788246766282e-02 9.6453438704786251e+01 8.8220216184660686e+01 8.7580917551732682e+01 0 0 0
2065 3 1.9481503997985034e-01 9.6424219136701780e+01 8.7162775030211861e+01 8.5326328438762076e+01 0 0 0
3795 2 -5.1826168473353099e-02 1.0214471002618978e+02 8.6706275257175420e+01 8.2630409934698235e+01 0 0 0
5657 2 -4.6555626144439831e-02 1.0004695388904096e+02 8.7179157132320597e+01 9.1079374483189966e+01 0 0 0
3805 3 1.3917773436106652e-02 9.8953012084026057e+01 8.7233670428375987e+01 8.6453962297215838e+01 0 0 0
3799 3 2.1574043491346853e-01 9.9833679913245845e+01 8.5640914069340354e+01 8.4758481718873114e+01 0 0 0
3793 2 1.0949222918366736e-01 1.0105377947549982e+02 8.7593287275382764e+01 8.4481234916291172e+01 0 0 0
3792 1 -4.4755511977305373e-01 1.0045170417645653e+02 8.6324173535112479e+01 8.4097008023065683e+01 0 0 0
3802 2 -4.4517633405897018e-02 9.9623212363614982e+01 8.8131183718023252e+01 8.6502200110829733e+01 0 0 0
5659 3 4.6977698954820866e-02 9.8812940886820030e+01 8.6868700762652907e+01 8.9223687705402696e+01 0 0 0
5656 2 -5.4411178106995056e-02 9.9101124604729605e+01 8.6557414048008241e+01 9.0246046691041599e+01 0 0 0
5663 2 6.1610820146842757e-02 9.7441600604666604e+01 8.4678408815850560e+01 9.0519155518409093e+01 0 0 0
5655 2 1.1997470553963781e-01 9.8478677686727536e+01 8.5477895100518410e+01 9.0942270871137083e+01 0 0 0
3796 2 1.0374501058071156e-01 1.0116127782371694e+02 8.5716016981678479e+01 8.2977870437349452e+01 0 0 0
2056 3 4.4910160446965983e-02 9.7810944030079980e+01 8.6279695870690745e+01 8.3578291714455005e+01 0 0 0
3801 2 1.1748889414155250e-01 1.0065094838167252e+02 8.8417609904510172e+01 8.5567298908022366e+01 0 0 0
5660 3 4.2904126047585478e-02 1.0056551433709652e+02 8.8088917378770688e+01 9.0845069282547414e+01 0 0 0
630 3 5.5482517482794147e-02 9.6622232914094525e+01 8.7422846318195553e+01 9.1150561253856281e+01 0 0 0
3790 3 2.3319178151135503e-02 9.9483389444838039e+01 8.3659886169200092e+01 8.3674735541696066e+01 0 0 0
3787 2 -3.8963499781240515e-02 1.0016762508137802e+02 8.3401113191823001e+01 8.2869053617586658e+01 0 0 0
5664 2 -3.7280453254249876e-02 9.6874555289147054e+01 8.3609891005921995e+01 9.1179615070631726e+01 0 0 0
3794 2 -5.2558032876878311e-02 1.0211308901124235e+02 8.7778690429236036e+01 8.3525714430572606e+01 0 0 0
3788 2 7.0331195614645292e-02 1.0103202458904389e+02 8.4437365916318754e+01 8.2407148135428102e+01 0 0 0
5320 3 6.1460053209100328e-02 9.8269433033127896e+01 8.2088969597778970e+01 8.2330796089032347e+01 0 1 1
5667 3 8.8577687848758441e-02 9.7250550540252632e+01 8.3180403613767169e+01 9.2094966872475808e+01 0 0 0
5654 1 -4.3225450634871149e-01 9.9238149963337307e+01 8.5370357753569309e+01 9.2265061476042973e+01 0 0 0
5658 2 1.2146857262639754e-01 1.0014055647384991e+02 8.6512860945813500e+01 9.2338977641680899e+01 0 0 0
627 2 -6.8728612701842717e-02 9.6842029780563877e+01 8.7801154699628768e+01 9.2107285633424880e+01 0 0 0
4995 3 1.8560102993805925e-02 8.2838862417256905e+01 8.9836483648775356e+01 8.2917445871234094e+01 0 1 0
6381 3 4.7729780939383876e-02 8.6699321237008590e+01 8.9399837017351274e+01 8.3931201201090161e+01 0 0 0
5861 2 -6.4025124393423394e-02 8.7551629411537917e+01 8.9523515185069144e+01 8.9844610182453522e+01 0 0 0
5012 3 3.4531625506847359e-02 8.2819442715568471e+01 9.4506071023995830e+01 8.2566681401901334e+01 0 1 0
5864 3 2.1703643731160176e-02 8.6635444003655152e+01 8.9942285600697588e+01 9.0275134324867665e+01 0 0 0
6378 2 -4.2492782703575850e-02 8.7465576480119211e+01 8.9958360769432730e+01 8.4497607303163818e+01 0 0 0
3575 2 1.3346900948487020e-01 8.7419515605580798e+01 9.3432016772745243e+01 8.2910830020695769e+01 1 0 1
4992 2 -6.9254630660956842e-02 8.3365163865776211e+01 8.9298099261873389e+01 8.3682837348513516e+01 0 1 0
4991 2 1.0260451862015459e-01 8.3933880085736050e+01 8.9840036521172649e+01 8.4886518128480176e+01 0 1 0
6382 3 4.6434395475047303e-02 8.6418786733217672e+01 9.0543576875885236e+01 8.6329320313514444e+01 0 0 0
6397 3 3.3770469010242839e-02 8.5377019405071039e+01 9.2586609323327622e+01 9.0280117534444727e+01 0 0 0
5004 3 4.4315231196061941e-02 8.4588870602458940e+01 9.3954255429550955e+01 8.7100606706230309e+01 0 1 0
5002 2 1.2101022156769578e-01 8.3837985465761506e+01 9.3590096195114270e+01 8.5091011060719069e+01 0 1 0
5001 2 -6.1253538491273463e-02 8.4272291761086223e+01 9.3211982964497039e+01 8.6418230941899793e+01 0 1 0
5000 2 -4.6796959489197099e-02 8.4434871469067772e+01 9.1820472548650272e+01 8.6469933534728995e+01 0 1 0
3570 3 8.8792939752543307e-02 8.6401244863270151e+01 9.2979033213032849e+01 8.5625515364589205e+01 1 0 1
6379 2 -5.5874423285911259e-02 8.7288918355077342e+01 9.0637725179468177e+01 8.5752810981597989e+01 0 0 0
3581 3 2.9167966069346607e-01 8.5852251555657276e+01 9.1802164245250566e+01 8.3415059560384449e+01 1 0 1
3567 2 -5.4640151276113255e-02 8.6937646705006841e+01 9.3876609751313040e+01 8.5384502265412124e+01 1 0 1
4999 2 1.1959687333873745e-01 8.3981808486697787e+01 9.1234915746500377e+01 8.5234069187774878e+01 0 1 0
5003 3 3.3480836709367842e-02 8.4755913294642596e+01 9.1255898698676077e+01 8.7367422699242155e+01 0 1 0
4998 1 -4.8463553875183213e-01 8.3587016896342206e+01 9.2297866827591605e+01 8.4372878204205819e+01 0 1 0
6384 1 -4.5801779645452106e-01 8.7589925492429259e+01 9.2235090713499403e+01 8.8417217376299021e+01 0 0 0
6391 3 2.3939263038167177e-01 8.6873509139104613e+01 9.1413939331065535e+01 8.8666879735391475e+01 0 0 0
6385 2 1.2535449333668219e-01 8.8076258408400491e+01 9.3138020908274598e+01 8.9407729998342944e+01 0 0 0
6393 2 1.1904979054388674e-01 8.7408530719169804e+01 9.3556400089525681e+01 9.0593646864954877e+01 0 0 0
3574 1 -4.8457961745870115e-01 8.6586101836555088e+01 9.2247694752435109e+01 8.2729341172294355e+01 1 0 1
6394 2 -4.8638880129734857e-02 8.6058062851899336e+01 9.3160896909264238e+01 9.0954475754013856e+01 0 0 0
3566 2 1.1324407936550715e-01 8.7519824099023324e+01 9.4178371708814524e+01 8.4124804435028167e+01 1 0 1
6392 1 -4.1611864485334799e-01 8.7788893126502387e+01 9.4418773142658722e+01 9.1689639501886063e+01 0 0 0
6380 2 1.2144351342939978e-01 8.8459008820060532e+01 9.1344723342014646e+01 8.6113752601250795e+01 0 0 0
5010 2 1.2037107109520943e-01 8.3573921762701261e+01 9.4870345942956959e+01 8.4658222881483184e+01 0 1 0
3588 3 4.0810125370164291e-02 8.4807424626890082e+01 8.9966083112009557e+01 8.2434217176265619e+01 1 0 1
6395 2 -6.4387729515301487e-02 8.5632670287873864e+01 9.3799139096390235e+01 9.2116968722397615e+01 0 0 0
5005 3 2.3752242129630982e-01 8.2980000471403017e+01 9.2088612961725332e+01 8.3465652956424933e+01 0 1 0
5009 2 -5.1179494952117682e-02 8.3046296153840089e+01 9.5202112895425685e+01 8.3362069014552773e+01 0 1 0
3568 2 -8.4006418688016754e-02 8.7182950060859270e+01 9.4905388615402259e+01 8.6369904126954353e+01 1 0 1
3571 3 7.1422574140687145e-02 8.6923345688528073e+01 9.4885181477071242e+01 8.7408624842787987e+01 1 0 1
3565 1 -5.1472951088966723e-01 8.8206090677363534e+01 9.5512723714711342e+01 8.4346826473371905e+01 1 0 1
5862 2 1.4029078901407660e-01 8.8885930349779002e+01 8.9683242278840012e+01 9.0360985926165114e+01 0 0 0
6377 2 1.3472814458910171e-01 8.8704312592799027e+01 9.0290376718869567e+01 8.3903663344167370e+01 0 0 0
6388 2 1.1431951473938066e-01 8.8556964770484669e+01 9.2070488766922637e+01 8.7308012505416414e+01 0 0 0
6399 3 2.0703035551273055e-01 8.8872649268828638e+01 9.4755200834794991e+01 9.1971253508614012e+01 0 0 0
5866 1 -4.2836369133688951e-01 8.8323718807742807e+01 9.1292090694349511e+01 9.2354801204892397e+01 0 0 0
2067 2 1.1949180745542234e-01 9.4598921375932619e+01 8.9066679569530010e+01 8.6745897425625202e+01 0 0 0
5858 1 -4.9153698673511192e-01 8.9726380627132428e+01 8.8999783787766120e+01 8.9410501918688567e+01 0 0 0
322 3 5.6731773820702158e-02 9.5333800584245523e+01 9.5268921955268013e+01 8.9368263187120121e+01 0 0 1
2291 3 6.5358625707485130e-02 9.4211881644523302e+01 9.4789538248194773e+01 8.2539082738067449e+01 0 0 1
2063 3 4.6194747409304009e-02 9.2909993920820085e+01 8.9595706951784507e+01 8.4496136097830245e+01 0 0 0
5870 2 1.1003413930640057e-01 8.9196195858332999e+01 9.0474359432066080e+01 9.1491999772469626e+01 0 0 0
5865 3 2.6565622721365628e-01 9.0829118103383720e+01 8.9002103801549026e+01 8.9371063581367210e+01 0 0 0
2069 2 -4.8514739626175647e-02 9.5303462287337268e+01 8.9487261169850598e+01 8.8938865899385448e+01 0 0 0
6369 2 1.1670393318063309e-01 8.9174019993255371e+01 8.9794831180546396e+01 8.2673828135006929e+01 0 0 0
2081 3 2.1249319570528138e-01 9.4935223843037804e+01 9.0946535475325547e+01 9.1609576867859658e+01 0 0 0
2075 2 1.0030599427305556e-01 9.3275558743533409e+01 9.2599155417098615e+01 9.1644360366247284e+01 0 0 0
6373 3 7.9492623330769618e-02 9.1348443207604916e+01 9.0205380066856108e+01 8.2752081866008396e+01 0 0 0
6386 2 -5.6593969488526713e-02 8.9331960486546876e+01 9.3563626357044910e+01 8.8852250382978198e+01 0 0 0
2066 1 -4.6532406939352655e-01 9.3619744902688780e+01 8.9874483977247522e+01 8.7454636748603008e+01 0 0 0
2073 3 2.3997470968077067e-01 9.2735109985901104e+01 9.0467752876382946e+01 8.7094942042848373e+01 0 0 0
6376 1 -4.7474362251385271e-01 8.9337356520175405e+01 9.1159223567497889e+01 8.4924608823970701e+01 0 0 0
5869 2 -5.1761619370941189e-02 9.0488392421478579e+01 9.0624718433804361e+01 9.2082545705425829e+01 0 0 0
2070 2 1.0407136667737027e-01 9.4128809659867485e+01 9.0273448703631772e+01 8.8791627446450178e+01 0 0 0
6387 2 -6.0762701815574763e-02 8.9705641780317308e+01 9.2844046610897095e+01 8.7689268789967841e+01 0 0 0
6389 3 7.4293668125963885e-02 8.9889268687459378e+01 9.4383718609631458e+01 8.9237359930595943e+01 0 0 0
2078 2 9.4933656578909148e-02 9.3616350402676431e+01 9.1166126830574711e+01 8.9753926821513133e+01 0 0 0
6383 3 2.8321314780009771e-01 9.0213584308968152e+01 9.1768858743739870e+01 8.4720519117465571e+01 0 0 0
6390 3 7.9413454569019340e-02 9.0562853948438516e+01 9.2988811297556481e+01 8.7064728819894015e+01 0 0 0
2080 3 6.1730379773185073e-02 9.1796544730195748e+01 9.1864453927916841e+01 8.8685912964961389e+01 0 0 0
3710 1 -4.8733607048469751e-01 9.1944221714354370e+01 9.3857038643046920e+01 8.4807010366387942e+01 0 0 1
2079 3 6.4978661866627180e-02 9.1357684432518980e+01 9.3374571255452253e+01 9.0851704569846788e+01 0 0 0
3711 2 1.0255743559469847e-01 9.2491350463721702e+01 9.4034972650931508e+01 8.6205020871619766e+01 0 0 1
3714 2 1.1111030725060933e-01 9.2705485745996810e+01 9.2894086527162756e+01 8.4100420574068821e+01 0 0 1
3716 3 9.5799486258296096e-02 9.4395672850251913e+01 9.1627155271440984e+01 8.4872776534530487e+01 0 0 1
3713 2 -6.8638556903799969e-02 9.3643141009419935e+01 9.2408196261746440e+01 8.5069613807749903e+01 0 0 1
3715 3 9.1052549490463708e-02 9.4136550406617246e+01 9.2929896295687243e+01 8.7172337675850514e+01 0 0 1
3712 2 -7.6249440877830602e-02 9.3587176341582861e+01 9.3077194364769241e+01 8.6286309858799711e+01 0 0 1
2076 2 -6.7790479840595816e-02 9.2233386268041798e+01 9.2789420181801518e+01 9.0709852845470280e+01 0 0 0
2077 2 -5.8143246346897021e-02 9.2443993396159343e+01 9.1952773442415349e+01 8.9568075565206897e+01 0 0 0
3725 3 2.8558187032359789e-01 9.3379467318948571e+01 9.4612221278858641e+01 8.9272711853042665e+01 0 0 1
2074 1 -4.4729100865706678e-01 9.4153934349296691e+01 9.1584960762675877e+01 9.1084670077321803e+01 0 0 0
3706 2 9.7724286504315139e-02 9.2587185170623087e+01 9.2496995987953810e+01 8.2733539905506959e+01 0 0 1
3717 3 2.4114051118712776e-01 9.1289243028193837e+01 9.4639330701415162e+01 8.4348478464473445e+01 0 0 1
3719 2 7.0750506734413993e-02 9.2069829440862932e+01 9.4934507975669476e+01 8.7121210387976220e+01 0 0 1
3718 1 -5.0531924274865814e-01 9.2615710408344427e+01 9.5099752454614162e+01 8.8706178761793041e+01 0 0 1
5872 3 7.0851504282769179e-02 9.1481797550363098e+01 9.0266180354058505e+01 9.1686306247649028e+01 0 0 0
6370 2 -5.7145930619293552e-02 9.0526248592384150e+01 8.9751290424187786e+01 8.2207024642454527e+01 0 0 0
3709 3 2.1479663600606663e-01 9.4185628438152378e+01 9.0874706531600140e+01 8.2391555722724007e+01 0 0 1
321 3 5.9122741058827311e-02 9.5729717890253099e+01 9.4657339598671186e+01 8.6891208162118488e+01 0 0 1
311 2 -4.2393040666952611e-02 9.7600462982209990e+01 9.0307906936911650e+01 8.4966923299896962e+01 0 0 1
315 3 2.5170890135517648e-01 9.7013002975348741e+01 9.3492480879900839e+01 8.4764621391113593e+01 0 0 1
314 3 6.9652098119113548e-02 9.7984750091847260e+01 8.9318173849912966e+01 8.4690858659836351e+01 0 0 1
4633 3 2.5642528187720237e-01 9.7677148268869615e+01 9.5596835809935925e+01 8.9079353892418226e+01 0 0 1
3806 3 2.5765065367891814e-02 9.8963471056623121e+01 8.9062083338624916e+01 8.8425987338112094e+01 0 0 0
3803 2 -4.9880895673405520e-02 9.9571744003698100e+01 8.9111577059396751e+01 8.7533831924087181e+01 0 0 0
312 2 1.0783451389782897e-01 9.7290706356474985e+01 9.1347324272174987e+01 8.4069278774387385e+01 0 0 1
3809 2 1.0154486831420853e-01 1.0051344167115413e+02 9.2752374416204290e+01 8.9940557190915627e+01 0 0 0
3812 2 1.0063654464106792e-01 1.0077218085146464e+02 9.1195303929403934e+01 8.8154170080138911e+01 0 0 0
3813 3 2.7055782592571468e-02 1.0209749760322984e+02 9.4098253565678220e+01 8.9118303620549185e+01 0 0 0
4640 3 9.5573503893416886e-02 9.9077939318170934e+01 9.3939311173993218e+01 8.7913369836396612e+01 0 0 1
4656 3 4.8318281064149329e-02 1.0115472069698517e+02 8.9863748713685737e+01 8.2374455922613066e+01 0 0 1
308 1 -4.6045656080495112e-01 9.6773472389804610e+01 9.2435014034199682e+01 8.4978594785628403e+01 0 0 1
3810 2 -5.0859332959793738e-02 1.0150979088532307e+02 9.3190022235077222e+01 8.9014972344086218e+01 0 0 0
3816 1 -4.1922647373238986e-01 9.9933582793918518e+01 9.4839654118127882e+01 9.1485920358879042e+01 0 0 0
3818 2 -4.5465793545665170e-02 9.8689225575198520e+01 9.2859027979032660e+01 9.1660936927804585e+01 0 0 0
3820 2 1.0909221123911164e-01 9.8804052200365689e+01 9.5029378386417889e+01 9.2347910893679341e+01 0 0 0
3823 3 1.9354052112111025e-01 1.0087491810787587e+02 9.5493228838442391e+01 9.1161626206376482e+01 0 0 0
4636 2 -5.1658639365429332e-02 9.9588495919332729e+01 9.3580910567597101e+01 8.5781231364049077e+01 0 0 1
4649 3 2.2939258938648630e-01 1.0054376688250623e+02 9.1677111624118410e+01 8.3525103205721422e+01 0 0 1
3814 3 2.4115539140554729e-02 1.0219180206111416e+02 9.2482679904265481e+01 8.6992551728204290e+01 0 0 0
3817 2 8.1935192749599817e-02 9.9790522171772011e+01 9.3412204253624367e+01 9.0980526781775310e+01 0 0 0
3811 2 -5.8820874779166948e-02 1.0159171719589000e+02 9.2341205668239454e+01 8.7895659197530478e+01 0 0 0
320 2 1.4515794595421991e-01 9.6257244191544046e+01 9.3309840373945420e+01 8.9832115205708007e+01 0 0 1
3800 1 -4.6283962244894589e-01 1.0121376170965381e+02 8.9665343575380362e+01 8.6045142535764455e+01 0 0 0
316 1 -4.3319197867404874e-01 9.6694486192242238e+01 9.2289306641378801e+01 8.9116248379714122e+01 0 0 1
2072 3 1.3557360791604346e-02 9.5871337365568110e+01 8.9460309660796440e+01 8.9835867066282233e+01 0 0 0
307 3 2.4049473144135358e-01 9.8308956901956918e+01 8.9279136226032392e+01 8.2191444298792717e+01 0 0 1
3804 2 1.0828559155569512e-01 1.0060058440612491e+02 9.0091570155679037e+01 8.7284623269718807e+01 0 0 0
3821 3 2.2937379625812663e-02 9.8262264184967052e+01 9.1864616450358824e+01 9.1530705046824409e+01 0 0 0
4643 2 1.0853120862609189e-01 9.9807193003784505e+01 9.3863673012140211e+01 8.3254704598196483e+01 0 0 1
4639 3 7.4380885785261003e-02 9.9842595214601602e+01 9.2490359280622428e+01 8.5853775574245276e+01 0 0 1
4635 2 9.2317365476373772e-02 9.9581099055936747e+01 9.4309031059575460e+01 8.4579476993045418e+01 0 0 1
310 2 -4.8470514428526588e-02 9.7359450504647057e+01 9.0701049150913946e+01 8.6314693277109399e+01 0 0 1
3815 3 2.0505526037674768e-01 9.9194566114024752e+01 9.0862608278238113e+01 8.9773587985201530e+01 0 0 0
313 3 6.7342341426170627e-02 9.7635883885015915e+01 9.0117374382731839e+01 8.7151205689168677e+01 0 0 1
309 2 1.2237223035367606e-01 9.6786934472793405e+01 9.2012826787676730e+01 8.6390786606837267e+01 0 0 1
3808 1 -4.4329098048248694e-01 1.0009767754386203e+02 9.1458775652243958e+01 8.9420659218784877e+01 0 0 0
323 3 2.1164430871657558e-01 9.7063014442132982e+01 9.1303766022993429e+01 8.9522854209101325e+01 0 0 1
319 2 -1.0489815421917782e-01 9.5807258491261578e+01 9.4374253938262129e+01 8.9059852336913025e+01 0 0 1
324 3 2.0342686159313710e-02 9.6318850331842413e+01 9.3192158397329791e+01 9.0922457698705600e+01 0 0 1
318 2 -5.0809371848891900e-02 9.5945093902775042e+01 9.3973669783246578e+01 8.7688953426856358e+01 0 0 1
4642 1 -4.4124231287700499e-01 1.0025797200143296e+02 9.2550720751634671e+01 8.2822246152023837e+01 0 0 1
304 2 1.1612934330722664e-01 9.7356982074589936e+01 9.1341032536167432e+01 8.2670907306709566e+01 0 0 1
4637 2 -6.8535932117588572e-02 9.9222153575902496e+01 9.4314275527621348e+01 8.6904366852623255e+01 0 0 1
317 2 8.2487361798558534e-02 9.6487457553340533e+01 9.2693330721698231e+01 8.7551580036329355e+01 0 0 1
3807 3 2.1805674860409294e-01 1.0219982026015668e+02 9.0149291094397682e+01 8.5798970814201866e+01 0 0 0
629 3 1.3433203979656220e-02 9.8071910132810629e+01 8.9525238991283544e+01 9.1576786962497252e+01 0 0 0
4638 2 1.0187176621659215e-01 9.8910858382115265e+01 9.5678407368683310e+01 8.6471573411091157e+01 0 0 1
4634 1 -4.5906648277617712e-01 9.9262968583358699e+01 9.5679263571115769e+01 8.5045559887858957e+01 0 0 1
306 3 6.6182313147919558e-02 9.6699142706741043e+01 9.3345366058479925e+01 8.2101991410799883e+01 0 0 1
1704 2 -4.4431513735260879e-02 8.7083313430437272e+01 8.3869256411107543e+01 9.4858991995688612e+01 0 0 0
1702 1 -4.7337780628239823e-01 8.6125806891879378e+01 8.5912467203032747e+01 9.4564647481068960e+01 0 0 0
1703 2 8.8960402320174117e-02 8.6713258256266315e+01 8.4756756695190944e+01 9.3786143773050952e+01 0 0 0
1709 3 2.7029284936493458e-01 8.5332535200030122e+01 8.6515237773681605e+01 9.4068823094458168e+01 0 0 0
1694 1 -4.8111221757135436e-01 8.5198054763531744e+01 8.5963986299029173e+01 9.8414687028383071e+01 0 0 0
1698 2 1.0655914128900267e-01 8.5404262591808859e+01 8.6323700926703864e+01 9.7018204282430631e+01 0 0 0
1701 3 2.3088367397745144e-01 8.5553828275910789e+01 8.5006181731104192e+01 9.8848765662501521e+01 0 0 0
1708 3 4.7646698630752028e-02 8.7092187461686549e+01 8.3940296992255725e+01 9.7030489831585328e+01 0 0 0