# LAMMPS data file written by Ovito Basic 3.0.0-dev791
33 atoms
2 atom types
0.0 9.8708963394 xlo xhi
0.0 8.5484466553 ylo yhi
0.0 30.0 zlo zhi

Atoms  # charge

1 1 0.0 0.0 0.0 6.51377821
2 1 0.0 0.0 4.274223328 6.51377821
3 1 0.0 2.467724085 0.0 6.51377821
4 1 0.0 2.467724085 4.274223328 6.51377821
5 1 0.0 4.93544817 0.0 6.51377821
6 1 0.0 4.93544817 4.274223328 6.51377821
7 1 0.0 7.403172493 0.0 6.51377821
8 1 0.0 7.403172493 4.274223328 6.51377821
9 1 0.0 1.233862042 2.137111425 6.51377821
10 1 0.0 1.233862042 6.411334991 6.51377821
11 1 0.0 3.701586246 2.137111425 6.51377821
12 1 0.0 3.701586246 6.411334991 6.51377821
13 1 0.0 6.169310093 2.137111425 6.51377821
14 1 0.0 6.169310093 6.411334991 6.51377821
15 1 0.0 8.637034416 2.137111425 6.51377821
16 1 0.0 8.637034416 6.411334991 6.51377821
17 1 0.0 0.0 1.424741149 6.51377821
18 1 0.0 0.0 5.698964596 6.51377821
19 1 0.0 2.467724085 1.424741149 6.51377821
20 1 0.0 2.467724085 5.698964596 6.51377821
21 1 0.0 4.93544817 1.424741149 6.51377821
22 1 0.0 4.93544817 5.698964596 6.51377821
23 1 0.0 7.403172493 1.424741149 6.51377821
24 1 0.0 7.403172493 5.698964596 6.51377821
25 1 0.0 1.233862042 3.561852694 6.51377821
26 1 0.0 1.233862042 7.836075783 6.51377821
27 1 0.0 3.701586246 3.561852694 6.51377821
28 1 0.0 3.701586246 7.836075783 6.51377821
29 1 0.0 6.169310093 3.561852694 6.51377821
30 1 0.0 6.169310093 7.836075783 6.51377821
31 1 0.0 8.637034416 3.561852694 6.51377821
32 1 0.0 8.637034416 7.836075783 6.51377821
33 2 0.0 4.93544817 4.27422333 20.000000
