ITEM: TIMESTEP
23800
ITEM: NUMBER OF ATOMS
1556
ITEM: BOX BOUNDS pp pp pp
0.0000000000000000e+00 3.0577600000000000e+01
0.0000000000000000e+00 3.0577600000000000e+01
0.0000000000000000e+00 3.2189100000000003e+01
ITEM: ATOMS c_virial[1] c_virial[2] c_virial[3] c_virial[4] c_virial[5] c_virial[6] 
805879 224655 1.63366e+06 -56489.7 570099 927977 
553892 560398 2.52792e+06 582687 -591076 158256 
-1.63134e+06 -222.955 -950585 -155806 562625 -360023 
947578 559579 -3.18828e+06 -1.15024e+06 -1.02759e+06 -295330 
-816007 108678 -261664 -749549 -364120 -462401 
1.4341e+06 23673.7 -891829 -1.59077e+06 -216839 -171767 
-3.79862e+06 -1.85652e+06 240467 -2.48713e+06 265768 417228 
-1.11983e+06 -379906 1.8526e+06 -420868 580953 -663821 
-876343 -227753 -1.04307e+06 -132693 -410590 -117056 
-3.07456e+06 932492 -525826 659248 -1.37989e+06 -187536 
-2.23853e+06 1.35067e+06 722015 821950 482208 -191927 
818008 -388098 157040 -1.46144e+06 58301.7 450426 
-691661 -3.69438e+06 -2.5206e+06 -1.81014e+06 1.88694e+06 834900 
-2.48414e+06 -2.21925e+06 -1.79563e+06 558833 -867829 138469 
-710921 -2.03812e+06 -449083 488839 -760289 690805 
-107277 -32942.9 1.31434e+06 -292460 -758754 -193342 
540845 638314 924256 -33712.6 -537108 -623648 
-5.59357e+06 -981155 -1.30629e+06 2.79477e+06 -2.59885e+06 354816 
-168282 124754 699504 440455 398791 -398547 
-3.76823e+06 -467484 -428184 378533 -518941 -881742 
-4.22515e+06 -1.66496e+06 -1.49141e+06 2.79156e+06 -2.76978e+06 994279 
-370807 -2.56413e+06 -4.91399e+06 -1.69859e+06 2.45005e+06 1.26253e+06 
-824021 1.18462e+06 -1.17377e+06 -955163 -175744 452810 
539679 1.18451e+06 3.05561e+06 -896947 390558 -1.21324e+06 
15733.1 -908372 -775557 611364 -198637 -759045 
184933 1.13758e+06 581223 -975376 -797178 -572432 
-2.3436e+06 -1.7806e+06 62147.6 1.31199e+06 339072 420020 
-2.99009e+06 698348 -770450 905460 -1.01587e+06 75485.5 
-3.16393e+06 -2.58413e+06 1.02963e+06 -3.27011e+06 791159 -655636 
-971277 -427111 2.78577e+06 -22715.9 85274.1 -505340 
-393418 203598 -617578 81643.9 -78566.9 -48776.4 
-4473.81 -978952 831759 -261100 -392581 -1.07043e+06 
-292843 -608319 -718672 901306 -872452 -564930 
679579 -1.00335e+06 318143 -387076 303470 -903618 
-2.75869e+06 -514939 2.64755e+06 39430.1 -280193 -46390.8 
-1.05671e+06 -751303 20722 396292 -14984.2 274595 
-788316 798241 153129 -1.27168e+06 -192494 -11602.5 
-101107 -1.61737e+06 48558.1 800078 105475 -538376 
-311253 -1.01079e+06 1.01013e+06 -416314 853789 1.17467e+06 
-167193 -1.09309e+06 208687 238269 727610 504270 
878014 -1.22245e+06 979697 909301 -895300 615995 
-881300 -420857 1.0426e+06 151039 708067 1.94202e+06 
-5.99995e+06 542285 216320 2.81433e+06 1.7952e+06 -1.5195e+06 
1.29188e+06 -2.26959e+06 -54307.3 469656 483335 833162 
-4.32756e+06 -442597 -1.77708e+06 3.16027e+06 4.73746e+06 -3.26931e+06 
-1.14429e+06 -2.73245e+06 -1.30226e+06 729162 112275 205592 
637308 982020 -983597 466669 -370616 -906897 
-1.33303e+06 242841 3.00069e+06 261376 -1.33389e+06 -573165 
-4.14065e+06 -1.75923e+06 -360249 3.53998e+06 3.75661e+06 -493841 
222210 882060 1.51796e+06 524562 -822464 53899 
-312216 -357309 607849 -9998.32 -755759 -256553 
-262323 527091 544064 1.02707e+06 -510486 368932 
-1.05173e+06 222432 1.60693e+06 762866 -1.12414e+06 1.53692e+06 
1.32637e+06 1.16094e+06 3.65541e+06 80418.8 -839046 1.14105e+06 
-1.53933e+06 75172.4 2.31703e+06 501581 -1.51244e+06 716853 
-216264 945560 430611 1.00335e+06 1.04404e+06 469138 
-1.07589e+06 216595 -814886 -567108 176690 11692.9 
225318 -1.44513e+06 119641 -850444 -1.41089e+06 1.20861e+06 
-695929 38197.5 104249 -822109 162904 34658.3 
465362 1.37333e+06 147031 -73422.4 -235071 526735 
610569 -1.57582e+06 -423693 -229244 806387 433475 
-5.84314e+06 -2.05132e+06 -4.69923e+06 3.34542e+06 4.14077e+06 -2.6787e+06 
-504314 -484294 -113843 -54927.8 153974 -143244 
-1.6334e+06 -1.42002e+06 143720 -1.13496e+06 -737904 1.09175e+06 
189463 -413014 3.0556e+06 -246388 -143713 -75979.6 
-922284 -569885 -2.64545e+06 1.29375e+06 368003 -1.82812e+06 
1.87552e+06 1.98627e+06 2.50513e+06 -1.55512e+06 -492763 391764 
-20130.1 1.09575e+06 1.36885e+06 181080 1.1491e+06 324063 
-3.57834e+06 -2.6363e+06 -3.18981e+06 -3.76042e+06 -854140 1.02618e+06 
-367280 840613 -1.58247e+06 -275564 -655437 -283754 
-179585 704932 1.73312e+06 794419 366638 44658 
321734 -715119 -2.03044e+06 85044.2 614664 -1.35051e+06 
-182114 1.66563e+06 -556668 245937 -162211 -1.51955e+06 
-1.23137e+06 725742 2.56238e+06 88632.8 -520539 -370169 
-1.59031e+06 -2.30885e+06 827517 -64154.3 -144377 1.15858e+06 
-765915 -1.19831e+06 1.51879e+06 -1.20295e+06 1.70318e+06 832877 
2.29656e+06 -1.61028e+06 -2.57586e+06 -892595 299757 201624 
421208 1.63836e+06 -1.25998e+06 303480 573535 -163275 
1.11745e+06 -1.05925e+06 -825576 376704 -508810 -1.09969e+06 
-871144 -3.3404e+06 -826081 -3.55883e+06 429181 941869 
747277 -327074 148716 52940.8 903764 105340 
-1.29897e+06 -2.42498e+06 669631 -1.83344e+06 1.53994e+06 602004 
-2.11813e+06 -4.3404e+06 -2.43051e+06 -1.6714e+06 -40413.6 -283277 
709303 1.63529e+06 1.34626e+06 -1.46652e+06 -562469 1.22121e+06 
-205125 1.04124e+06 1.05683e+06 -65198.4 565723 1.14687e+06 
-995229 -766184 -1.14542e+06 -542893 413196 428587 
-407764 -500283 31981.2 -744214 840692 780283 
-488702 982329 -172594 -1.35948e+06 834153 29233.8 
-2.25026e+06 39200.5 -1.31847e+06 -1.21129e+06 -3.00333e+06 658179 
-1.08766e+06 -2.30874e+06 -870820 -30177.1 129149 -68080.8 
-387244 -802720 -28195.6 -441064 28896.1 1.14252e+06 
2.13793e+06 -319338 1.27689e+06 1.78039e+06 -792014 -96382.1 
1.14503e+06 -835572 -344415 -132566 920284 42982.7 
-1.5489e+06 -1.7278e+06 -650911 -823933 -335436 -357688 
512699 -94084.2 -705038 764523 256398 965382 
-107428 941415 -1.56649e+06 -416937 -99725.1 -736701 
407652 -245511 1.78757e+06 428173 112567 70698 
686500 -403263 -355543 -48975.1 1.0414e+06 -207087 
99548.4 1.0769e+06 2.09375e+06 -68063.7 834638 1.06722e+06 
-1.97663e+06 -275437 -1.55053e+06 320237 -770076 -1.03506e+06 
-75487.8 1.45829e+06 1.49897e+06 1.66659e+06 31481.7 -768771 
1.72485e+06 1.27084e+06 818812 659718 306762 1.38962e+06 
-403844 638321 2.4514e+06 1.70095e+06 12720.6 62981.2 
-423105 -441036 22824.5 -240699 -981316 -655600 
-78655.8 -639093 -600195 549553 1.0724e+06 -885877 
-160106 1.00533e+06 131556 1.46012e+06 643521 935318 
2.59484e+06 3.56248e+06 4.25698e+06 -19521.8 -453649 1.51518e+06 
-435123 2.59592e+06 782762 -59112.8 418426 -864744 
2.54629e+06 -227410 -675458 1.42169e+06 -702637 -495377 
349288 319594 3.3408e+06 658981 -1.63227e+06 -361434 
313233 1.49979e+06 799737 -582626 -617746 -2.27542e+06 
591317 727611 -553756 1.02614e+06 512458 816293 
822250 663006 931010 -1.28222e+06 440220 1.26833e+06 
2.95705e+06 -1.00354e+06 -364877 -1.13621e+06 -502290 268485 
1.33364e+06 2.10818e+06 -5862.66 -1.2515e+06 410779 1.02091e+06 
152131 712247 -1.94558e+06 -363959 14315.6 28592.6 
35129.5 -75403 -1.40353e+06 824937 -667902 1.39637e+06 
-334916 396034 908538 -255719 -209081 -1.14101e+06 
592624 1.33264e+06 765349 289330 829368 347232 
900095 2.75351e+06 1.07271e+06 220303 -1.13062e+06 -614309 
-455144 2.67376e+06 -279078 550882 -231139 -35990.2 
1.26585e+06 295946 -847730 70895.9 1.01452e+06 -308637 
716614 1.91544e+06 2.755e+06 -722639 442202 977910 
-3.37381e+06 -3.5766e+06 -847618 -2.87745e+06 -644294 1.89439e+06 
-3.39347e+06 -1.1412e+06 958916 1.18965e+06 14749.5 -2.54303e+06 
-722292 -259194 679620 -60936.9 104100 -659810 
350479 -540854 2.00558e+06 -574843 -42413.6 -691686 
-1.80272e+06 -726398 -2.03801e+06 2.6947e+06 -1.52961e+06 494644 
2.33359e+06 1.23591e+06 1.3528e+06 77854.8 204153 -508753 
88049.1 -185086 1.42185e+06 854303 375260 1.85601e+06 
1.53635e+06 2.35836e+06 224503 -622185 91972.5 984983 
-70307.9 1.07514e+06 4.05181e+06 687724 146835 -50390.8 
1.20988e+06 471946 1.15705e+06 -317860 -383769 -1.16076e+06 
1.75769e+06 978946 1.78083e+06 79402.6 1.36194e+06 715483 
-1.7807e+06 -1.58222e+06 -2.05081e+06 -3.23357e+06 -2.59023e+06 -2.14293e+06 
1.89435e+06 3.05896e+06 2.10112e+06 -608303 -154794 1.0734e+06 
-2.21366e+06 474582 681731 194576 530951 -1.2699e+06 
-5.20806e+06 -4.28416e+06 -1.74835e+06 -2.90957e+06 -1.7588e+06 -1.84829e+06 
853731 -1.11083e+06 -1.45004e+06 860184 -856062 306013 
-2.03242e+06 -1.86021e+06 -1.08768e+06 -3.83573e+06 -1.08898e+06 580177 
-235980 -82451.9 1.3143e+06 2.11154e+06 -486076 622429 
1.6828e+06 -2.00457e+06 -2.47787e+06 368450 -422927 -2.35843e+06 
-1.61868e+06 1.35181e+06 -1.70846e+06 940431 109057 -39533.9 
-3.96455e+06 -1.66567e+06 -1.66863e+06 -3.62561e+06 -1.5405e+06 -366245 
241277 -2.08254e+06 2.21205e+06 464314 -1.69739e+06 -1.95352e+06 
-3.62496e+06 -3.05093e+06 942224 1.99676e+06 1.65063e+06 167568 
697542 -1.25341e+06 1.40054e+06 691883 -462828 731432 
1.76847e+06 2.09466e+06 2.87697e+06 -673424 -884036 467759 
434450 -933333 -205738 -366845 1.27358e+06 -1.26007e+06 
-668065 154020 -363627 2.13088e+06 127737 866860 
320686 886744 -74461 706922 -1.92812e+06 380472 
218070 -1.34976e+06 661796 242882 -965660 607023 
820405 44704.9 -478152 1.01538e+06 829510 1.33193e+06 
-229400 599676 1.9815e+06 -632275 -825045 -353532 
1.86719e+06 -65793.8 1.23255e+06 187250 -501724 455510 
177510 813069 -626757 476824 -1.07516e+06 54610.6 
-1.48295e+06 -1.29366e+06 -5.99619e+06 2.6489e+06 1.48481e+06 -2.76342e+06 
985022 -1.4058e+06 1.43648e+06 746992 -493539 35700.3 
475406 879792 -891845 901619 1.277e+06 70958.6 
495817 -392273 926825 4465.93 -981708 -889020 
1.31581e+06 -1.14368e+06 619539 183438 -2.12108e+06 172351 
325457 1.74971e+06 -2.70196e+06 1.24601e+06 -2.00907e+06 -1.43514e+06 
534407 522038 -1.13035e+06 328037 1.06095e+06 -427051 
-21158.8 554820 -348150 705144 650266 30728.1 
-361794 159604 -132802 -1.14005e+06 -136278 -336532 
292621 489253 898565 -550229 -1.15957e+06 625767 
1.10263e+06 514430 1.44373e+06 -180553 700925 2.55239e+06 
-1.84157e+06 -1.51964e+06 -1.78285e+06 -455731 134655 539973 
558078 867982 451633 256229 -240742 1.03336e+06 
792497 -1.22513e+06 -1.61944e+06 17980.8 255641 710280 
503992 1.54025e+06 3.74151e+06 831183 1.84302e+06 1.4627e+06 
488919 -1.17991e+06 -619056 870767 18245.6 216653 
-2.08214e+06 -1.45932e+06 -1.88473e+06 -745306 -454122 401878 
286060 862557 762924 21395 437232 -263511 
-31901.2 118537 1.16942e+06 -1.2851e+06 972101 263199 
-356044 -1.02402e+06 -476707 1.11708e+06 295853 1.0248e+06 
-198938 -2.07289e+06 -2.12977e+06 -113852 -444986 -53611.4 
-425881 249510 656698 429121 -297628 283648 
-2.50622e+06 -2.62332e+06 -893509 943968 -47930.5 -220687 
-2.0604e+06 391680 -1.79936e+06 -346418 -618728 -73745.9 
-2.93675e+06 -3.49632e+06 147310 1.2879e+06 -967827 39149.8 
-1.80984e+06 -228.239 -1.29789e+06 417325 -419343 385126 
-775343 1.44374e+06 717819 -860446 392465 651480 
-2.89768e+06 -1.53063e+06 -6.62066e+06 1.67561e+06 2.37059e+06 -3.80377e+06 
904877 101498 -731232 1.82122e+06 -642285 -60333.6 
-271583 1.09566e+06 2.62958e+06 -381654 -511042 -474718 
601990 49385.5 -287497 86534 -423163 -532695 
1.22128e+06 -1.08048e+06 -764619 268505 -480280 695041 
-217187 866289 -919771 825151 -1.19819e+06 951203 
-2.55649e+06 1.56251e+06 -3.57453e+06 125031 -1.39409e+06 835119 
2.05242e+06 -1.03152e+06 86849.2 1.431e+06 -1.68207e+06 -171461 
-602310 -524619 574385 547268 404420 903107 
720798 4.09598e+06 2.24535e+06 1.90265e+06 -497761 1.15209e+06 
985830 -1.36126e+06 -1.15558e+06 -636743 -298751 -1.0666e+06 
-754378 283668 932933 202370 -1.4588e+06 1.45386e+06 
-860104 -792862 910652 427757 316062 -2.8422e+06 
850620 2.33041e+06 2.48696e+06 23951.1 502668 -748485 
-149971 -332629 2.44056e+06 -281390 931977 36249.2 
79948.8 2.72585e+06 -3.07448e+06 1.55195e+06 -1.34477e+06 -276089 
1.07654e+06 3.29997e+06 1.23457e+06 -7988.56 -388347 -1.10363e+06 
552662 -1.20685e+06 -3.08447e+06 -83438.6 -951665 -108920 
2.682e+06 983285 -591913 74074.6 -869098 -419985 
522633 1.08155e+06 -863056 1.58605e+06 -1.4598e+06 -671830 
655352 1.67504e+06 2.69431e+06 -433860 2.07144e+06 -584879 
-134766 -1.17229e+06 2.4122e+06 661518 184951 -286842 
-506540 794703 -49771.4 413543 -1.04889e+06 834555 
-1.49887e+06 158244 -505717 -123161 647892 -330041 
-1.41864e+06 487797 1.76974e+06 -606751 1.62029e+06 -1.41958e+06 
-2.05202e+06 -3.38859e+06 -3.62714e+06 472501 -1.33524e+06 1.00784e+06 
1.54335e+06 1.43626e+06 1.02842e+06 521611 -182893 2551.42 
-1.5224e+06 999862 2.58648e+06 1.08776e+06 -667884 -776829 
2.73537e+06 2.63329e+06 -17958.6 -188303 1.34235e+06 877114 
-246005 209879 2.79334e+06 364220 404646 -87874.7 
994015 3.6828e+06 2.36567e+06 -1.82923e+06 750602 620624 
-133846 -369039 900900 329577 68686.6 396729 
1.57346e+06 -2.02555e+06 -240315 27004.8 -636933 -87781.4 
904087 1.55051e+06 2.43645e+06 480344 582533 817047 
1.89465e+06 2.19483e+06 595877 -1.84516e+06 -137617 -1.06052e+06 
-490588 487235 1.77238e+06 -98079.7 392246 926293 
1.52665e+06 2.55363e+06 3.80674e+06 535157 85860.6 138085 
1.09881e+06 -375406 -726414 792967 -29580.6 -55854.5 
233998 2.82073e+06 2.92304e+06 1.23317e+06 -1.45701e+06 -443932 
-1.57423e+06 1.14868e+06 -2.86237e+06 -848988 788085 -38986.4 
-2.2949e+06 -601089 699107 259036 187767 448037 
-2.39269e+06 -2.18931e+06 481693 -598634 781105 953067 
-777399 958459 3.10729e+06 -833659 887174 -324821 
1.84495e+06 -1.99004e+06 -2.77398e+06 -568892 -305628 728074 
-1.43815e+06 -2.14176e+06 -2.18848e+06 -704364 -365012 831024 
-186868 2.14899e+06 -1.52196e+06 382820 470327 484876 
-639485 -2.73107e+06 -2.14014e+06 -811222 529634 -398742 
-1.27761e+06 -602055 -964723 74984.5 -224392 163588 
-964211 -2.40102e+06 -1.49132e+06 -344418 -1.86613e+06 -917846 
-936213 -965930 -1.5724e+06 697267 -752040 -630266 
857232 -238127 1.2551e+06 485020 -556859 58776.1 
-412435 -4.10789e+06 -1.42105e+06 -1.14962e+06 1.13333e+06 2.19991e+06 
-1.04334e+06 49596.6 -628517 -155573 -417405 1.10734e+06 
283574 -745920 -1.67193e+06 -53265.6 898077 1.27249e+06 
-392522 -1.15484e+06 -111976 -546831 208966 -1.11969e+06 
1.02941e+06 1.50391e+06 2.82783e+06 172597 -1.21508e+06 1.53663e+06 
-2.17836e+06 -2.39787e+06 2.45269e+06 1960.84 -564643 -511288 
207823 655637 3.17492e+06 -959903 -349334 -1.39175e+06 
-654112 -959239 61921.5 -595048 -273892 1.11019e+06 
-1.05977e+06 -1.6122e+06 -2.83881e+06 -34220.5 -245806 685997 
1.50916e+06 527445 1.65673e+06 -322957 766225 232465 
-991534 1.77906e+06 966782 928065 -1.00792e+06 -911259 
1.26265e+06 -1.84048e+06 -747542 -413872 -2.19842e+06 -1.68622e+06 
-2.02929e+06 -1.41235e+06 -605108 -240712 -19801.5 602603 
1.70447e+06 -1.01889e+06 244163 -573055 -754656 871389 
-2.1528e+06 -294372 1.22399e+06 -455795 -310606 327114 
653348 -1.4081e+06 1.41311e+06 523804 1.40965e+06 126545 
-2.47941e+06 -1.09951e+06 -1.78396e+06 -624722 -493644 -684676 
-1.0338e+06 623514 -2.01827e+06 215196 486917 -993364 
556147 -2.00848e+06 1.46429e+06 -527607 893341 52419.5 
1.62347e+06 34403.7 -267604 905335 -804417 -332430 
-3.02698e+06 -2.2948e+06 -2.16349e+06 -389519 -280688 305923 
-1.25862e+06 745361 -650251 -451186 -359049 433439 
-352671 -316176 778102 -225053 -227423 1.16365e+06 
-1.62362e+06 -2.40141e+06 102968 -1.01507e+06 473996 551106 
913097 -1.24852e+06 1.28511e+06 761437 -1.10683e+06 -918757 
123135 -85083 1.18125e+06 349470 -294017 -564488 
864766 618556 -205485 1.41439e+06 -582517 25038.1 
-440534 -725757 -912586 -238680 -558377 459964 
1.88487e+06 2.06645e+06 -203026 1.81777e+06 -892991 271222 
834160 521160 752505 688189 -451811 106574 
475498 -1.14053e+06 -1.56546e+06 -1.54721e+06 -648945 49899.8 
2.49547e+06 2.50361e+06 1.9859e+06 350776 -866381 -450109 
1.28201e+06 822979 -240236 1.03327e+06 31190.8 -375761 
-870376 1.59604e+06 -1.19083e+06 679409 1.25816e+06 -399580 
-1.9405e+06 -175822 -1.62071e+06 -124318 -401026 -352703 
789347 -412433 647503 75224.9 -546054 1.34978e+06 
-2.21543e+06 -558809 330617 1.42824e+06 -1.11631e+06 59881.1 
-2.43934e+06 -1.96177e+06 614613 -204429 494949 511301 
-936220 1.93203e+06 10252.8 776553 -1.26436e+06 1.5761e+06 
-3.61187e+06 -2.31354e+06 -1.37475e+06 -821742 -1.3752e+06 -426777 
-667092 38596.6 748520 -309568 -502053 804896 
791200 458096 -502669 -15061.4 -525357 -16331.5 
1.72248e+06 826164 816454 -961436 71620.1 -995391 
1.18708e+06 -1.70694e+06 -416475 477272 102775 993575 
-216292 -184023 588137 -689952 1.70231e+06 542098 
-752423 291699 858612 -241693 -84635 -629137 
-460624 -403884 -263221 -310826 654429 -75394.1 
-2.39829e+06 -867706 1.22966e+06 1.36308e+06 -496035 752760 
390538 -316888 -1.11e+06 -478749 710803 -203019 
-292269 536155 199531 524274 -47091.2 -576902 
-968448 -165105 -831965 106478 -500628 -267818 
-187532 791424 -684239 453860 281942 -204848 
-841972 -904306 -1.56823e+06 -165531 -1.28295e+06 153607 
-3.11235e+06 -238138 497647 -1.58074e+06 -2.4242e+06 -1.08401e+06 
-490241 -1.0193e+06 -1.34152e+06 -483862 -339297 -294030 
433612 181813 2.02659e+06 1.08655e+06 328801 -972220 
974865 1.6629e+06 -661332 453532 -998940 677367 
2.00207e+06 381880 1.88901e+06 592524 -224923 783793 
-458923 -815475 -640794 36561.2 -123110 9143.03 
90376.2 -857762 -790386 -414644 -443339 961408 
-673417 -873473 -66116.9 827875 172679 463147 
967616 936999 817041 -1.03233e+06 -1.75375e+06 841059 
-69378.5 -672953 -132001 432819 -1.72263e+06 343497 
-1.0534e+06 806339 539555 -953278 -429365 405059 
-2.19173e+06 65125.9 707221 -75131.6 544952 -58874.2 
613641 -369186 2.10859e+06 -600300 400200 113522 
-535155 -995506 1.01516e+06 -564368 -705660 -75285.8 
1.84256e+06 -1.58397e+06 1.9802e+06 56690 1.64423e+06 -2.74171e+06 
-131916 434798 -674953 -237983 -1.07047e+06 1.57772e+06 
-354006 850467 -592793 -624917 442849 110293 
-550761 -1.1715e+06 -1.16316e+06 1.13744e+06 -40651.2 -1.11817e+06 
-1.39097e+06 -1.56736e+06 1.39485e+06 9852.85 1.02054e+06 1.28389e+06 
1.45603e+06 -731234 1.00504e+06 -659795 683960 -6281.17 
-3.84306e+06 -3.30249e+06 112832 2.94478e+06 1.07535e+06 -1.17107e+06 
-204617 -173207 308383 -295858 1.28179e+06 1.08878e+06 
-170217 2.06135e+06 284172 -218018 -1.10842e+06 604601 
-1.3729e+06 -135004 -1.61725e+06 492375 950014 703938 
1.39559e+06 301395 959636 -1.46448e+06 441905 1.07924e+06 
-867648 1.07365e+06 800813 73001.3 326524 435607 
1.27971e+06 1.27858e+06 -109727 -1.7712e+06 -1.61446e+06 -408130 
998330 -389897 87525.7 634106 -293304 384279 
-2.6229e+06 -1.06914e+06 -430020 -7997.9 863721 714432 
-165083 -693965 -878313 -46203.3 1.23029e+06 854505 
-1.16231e+06 -853745 -577980 284601 -1.39929e+06 572608 
389017 1.2136e+06 2.09297e+06 1.12187e+06 -681711 -947809 
-852695 -920602 1.14371e+06 284070 -486846 627720 
-614580 1.48263e+06 32980.6 527374 -360874 254331 
-1.67258e+06 -3.08577e+06 -775483 -477362 98325.8 -453910 
-336046 333935 -14904.7 -166766 -1.2112e+06 957722 
-812524 -1.07518e+06 -386020 -11075.9 75009.8 -204201 
-64228.3 235627 580781 -73784.7 187099 1.4754e+06 
-1.65729e+06 -747278 1.6755e+06 -3855.45 1.06371e+06 224125 
214396 1.89097e+06 -42029 -225570 -354509 1.48984e+06 
-804499 -5.55303e+06 627994 2.78487e+06 732650 123298 
-1.92852e+06 -422557 -1.0674e+06 1.02064e+06 1.08277e+06 -1.18857e+06 
-1.40387e+06 -2.71485e+06 -313884 120850 186703 509935 
-2.55659e+06 -5.2262e+06 -1.72936e+06 3.48499e+06 504370 -1.20846e+06 
95790.4 355263 -899177 595939 93980.6 -620927 
881321 -218434 -1.97424e+06 -809042 -2.00951e+06 473391 
-1.10017e+06 -2273.51 -448119 -287599 -107497 404523 
979528 189498 1.6753e+06 -870235 -140535 25601.8 
609573 238795 30515.9 241308 -778997 1.18724e+06 
461428 -659278 -1.86353e+06 354414 337533 -460602 
-815395 -1.22209e+06 -1.71006e+06 13612.5 763339 423166 
-236950 -425414 -1.1146e+06 420697 768749 575950 
821066 341350 481429 923936 -570946 -1.03422e+06 
-806416 1.43377e+06 -1.04489e+06 17301.8 -329236 951120 
-602586 -762411 242282 835980 1.06218e+06 614691 
773985 -54373.1 1.87984e+06 41190.7 521377 22875.2 
-289055 847207 545132 226192 -1.29889e+06 585278 
1.21174e+06 572809 1.70464e+06 885675 -469466 160399 
373923 626414 271818 134065 -516414 1.09601e+06 
-282129 -176231 -8623.11 404000 -846611 -590379 
-296831 -1.92654e+06 -2.57075e+06 504192 -664254 -563569 
305070 -759974 -2.30962e+06 1.62736e+06 -534885 -120986 
108598 -2.57951e+06 1.37704e+06 230844 -380772 513512 
-2.18359e+06 1.06006e+06 103095 -517863 42698.5 538825 
-293065 19856.8 -1.06911e+06 186457 -947766 588790 
-657795 456669 2.6439e+06 -132834 -900940 1.02972e+06 
2.20167e+06 2.87369e+06 1.48696e+06 -2.07635e+06 99644.2 -522981 
226475 -1.05934e+06 2.35378e+06 -547432 683396 -709225 
-83133.7 -80889.7 -26685.5 -213106 -136544 467379 
-689302 -440545 -489626 -689170 -9097.26 428753 
-883393 -2.08578e+06 121540 882859 -840585 -122528 
1.40197e+06 3.31031e+06 -536713 359394 300182 493578 
-960347 -3.50756e+06 -675211 -621137 -1.07814e+06 -1.35394e+06 
713820 2.14141e+06 311150 180755 736065 -623456 
2.6817e+06 1.26563e+06 -83328.2 -1.20848e+06 -1.35072e+06 1.0515e+06 
1.41203e+06 210042 1.96564e+06 -240192 -254474 825481 
3.15533e+06 309593 -65770.4 -144433 1.12158e+06 377459 
-1.2831e+06 -734876 -1.81712e+06 11049.6 -172385 320583 
502884 -1.38556e+06 -1.24433e+06 79150.2 467100 455134 
-2.3521e+06 311598 -1.48371e+06 -1.115e+06 2.64987e+06 -1.05004e+06 
-243515 1.57302e+06 33950.5 -854188 79453.8 32786.5 
1.39978e+06 -1.16565e+06 3.96357e+06 -82114.2 1.57624e+06 -1.22252e+06 
-432372 -518839 -1.3513e+06 -334696 -788126 336402 
-748026 600761 254794 -306626 593981 480003 
-294752 1.13783e+06 732219 -800177 491407 -854709 
1.7218e+06 917301 2.88958e+06 -1.51419e+06 800406 -130227 
499474 1.00973e+06 688415 -520670 -1.15208e+06 1.37625e+06 
4.85629e+06 2.64619e+06 -144765 444071 -856971 -319633 
-549569 -2.96102e+06 -525026 -2.24417e+06 -146275 -1.37595e+06 
-1.56984e+06 -2.29241e+06 -3.08124e+06 -1.52882e+06 -2.03803e+06 -765592 
324364 -277599 77600 -768961 252526 -298782 
1.31376e+06 1.75357e+06 414332 2.27477e+06 -39864.2 143355 
474990 1.35892e+06 -1.68561e+06 1.3537e+06 -654138 890180 
211575 -241742 -2.89754e+06 -576632 76983 8412.24 
1.06115e+06 290936 1.98596e+06 454591 -230264 -718095 
-1.77531e+06 -2.71418e+06 -2.70733e+06 -1.70907e+06 -818227 -439096 
3.49276e+06 4.65867e+06 2.96527e+06 -989866 -751743 -764671 
26529.6 950325 -264986 -1.12172e+06 548650 237593 
-1.24503e+06 -226991 -1.64297e+06 903121 663501 -503417 
-714112 -453484 -1.02222e+06 417006 437072 -1.28393e+06 
-502255 -884823 -1.95293e+06 -85646.5 -349577 111123 
-543387 -441732 -1.20883e+06 1.73913e+06 552925 189253 
-309662 1.06276e+06 -1.98206e+06 -1.02736e+06 816687 1.19997e+06 
-362904 -1.57448e+06 513788 710547 -918851 -645745 
-79067.9 93325.2 -364919 -335630 -291073 -359913 
412663 -1.72609e+06 -772103 122431 426213 -1.71546e+06 
-1.4087e+06 -2.00463e+06 33213.9 37092.4 -47610.2 401393 
318814 1.03331e+06 -502253 675456 -279381 914548 
-234180 2.13434e+06 -515968 1.66317e+06 -42322.5 -449366 
355651 27434.3 1.24638e+06 446321 242204 821750 
-2.84177e+06 -6.91452e+06 -238934 2.97899e+06 688434 79623.3 
-157560 -216997 260467 -265109 63528 26630.9 
-2.63502e+06 -6.50432e+06 -344754 3.12873e+06 87336.4 362532 
3.55478e+06 315798 -807976 1.27283e+06 77994 -1.66762e+06 
2.96383e+06 552950 2.47749e+06 -469796 576109 131823 
-706759 701370 125321 1.63727e+06 141476 1.80693e+06 
3.48026e+06 3.7352e+06 2.2397e+06 1.32473e+06 1.30792e+06 396082 
-2.52171e+06 720517 2.47313e+06 -649899 1.09271e+06 -473249 
400827 661647 514612 -527556 -1.1017e+06 122373 
-82666.7 1.84192e+06 2.10823e+06 -975637 1.69189e+06 -710345 
-141667 1.29502e+06 -608563 -200645 -711520 78772.6 
-660092 1.30932e+06 -495309 1.10044e+06 924421 -362599 
-2.57849e+06 -8.90983e+06 -3.87897e+06 -5.77763e+06 3.82006e+06 5.17293e+06 
-1.15799e+06 -272520 335885 -122479 509547 99723.3 
3.14535e+06 41174 -490125 1.50489e+06 493049 875553 
987229 584452 -305813 168016 62678 391954 
-1.38252e+06 1.26478e+06 -713627 -245737 -70046.7 134859 
740004 1.11035e+06 -416374 465605 310466 165573 
1.23461e+06 -908107 165541 211812 -8105.68 31022.1 
-82456.9 2.77078e+06 966791 599794 739749 -288598 
179856 3.02973e+06 -643451 445377 -478030 -228396 
-862237 1.08533e+06 1.90684e+06 -802604 -520513 617911 
-721663 -337044 116186 -668602 -532019 45195.7 
-170293 -722750 -706787 281211 477903 -372931 
-2.42446e+06 -639971 -217425 -977658 802823 607700 
617445 -134771 275644 -399409 496610 -1.19733e+06 
-648588 -97956.8 367241 -351179 373679 114835 
-2.95639e+06 -2.60849e+06 -1.36785e+06 -657673 -82365.2 359101 
3.00923e+06 -429528 574493 1.35859e+06 1.02287e+06 -269987 
1.23218e+06 -366028 -1.43344e+06 2.0976e+06 829552 118254 
-13614.4 59347.9 1.19261e+06 730488 528456 -129666 
-381644 -238263 -682848 -47265.4 406031 -1.06923e+06 
-370920 -56193.2 3.34208e+06 42475.6 -26396 733715 
1.32556e+06 -1.06921e+06 -600839 -622645 1.30441e+06 -1.17597e+06 
-239057 -143074 -374270 -204182 5146.48 -310153 
301491 -2.89244e+06 1.41284e+06 154983 -885864 -138466 
1.71905e+06 1.89335e+06 1.79021e+06 -1.78346e+06 267204 -239474 
448295 187711 822367 -228107 -313868 -471339 
-1.16782e+06 -371709 -101902 374200 521195 804024 
1.2841e+06 -2.75985e+06 -840694 1.48776e+06 -500625 713977 
-1.39676e+06 -1.12408e+06 -868450 314143 -1.01651e+06 -712642 
-283880 -2.32925e+06 -2.03762e+06 -683089 -959397 724316 
1.03432e+06 170269 1.50302e+06 759206 -272567 827033 
529263 -171224 74089.1 900722 -357862 -826206 
410307 -73083.9 1.66541e+06 -106647 -230891 445588 
2.90014e+06 1.86226e+06 2.43017e+06 -398522 598977 5110.24 
1.18704e+06 624817 271886 1.64548e+06 -2.58858e+06 -1.87269e+06 
644993 178036 898268 1.08734e+06 981745 -15296.2 
1.78421e+06 751911 3.23114e+06 1.34558e+06 -872056 -1.02598e+06 
278822 570322 -1.10062e+06 -831728 391122 367765 
638973 718576 2.54299e+06 1.19954e+06 432241 532565 
4.0976e+06 583971 953203 -462391 1.63265e+06 -1.02097e+06 
543694 -1.2945e+06 -462556 -1.11519e+06 1.32118e+06 -107564 
3.16883e+06 2.54346e+06 775635 -790343 762538 483101 
619742 -2.75169e+06 -386113 3450.17 -735781 1.32079e+06 
-934246 689399 -1.59875e+06 178615 326643 569173 
-197864 -710495 68282.2 301754 1.078e+06 -582897 
665885 -1.26225e+06 878704 -528296 1.31464e+06 -2.5156e+06 
-2.8179e+06 -8.20786e+06 -4.19617e+06 -5.31578e+06 3.50775e+06 5.95344e+06 
-2.07118e+06 -1.01012e+06 1.14784e+06 -749208 277359 -1.72299e+06 
183658 280225 2.30188e+06 1.10735e+06 -6847.84 -684389 
756300 2.57201e+06 883874 1.18985e+06 196941 -1.58569e+06 
342346 288676 608142 737318 -146330 -1.20272e+06 
-1.05378e+06 -3.37188e+06 -2.48928e+06 1.1715e+06 -557559 1.0604e+06 
-504112 46674.9 676626 3.01721e+06 138770 968036 
-3.25889e+06 -2.38054e+06 -810936 115996 -42918.2 -808310 
-311282 2.57161e+06 583331 740141 477145 1.25154e+06 
1.7267e+06 1.81879e+06 657017 1.46027e+06 -1.4769e+06 -1.98082e+06 
1.92107e+06 293352 -112306 49392 -597061 -431242 
1.00334e+06 1.2502e+06 2.64709e+06 618963 -326673 -565763 
1.04584e+06 2.39567e+06 1.52794e+06 1.45069e+06 -1.37244e+06 104554 
431213 -2.7975e+06 -1.74548e+06 -1.23829e+06 1.16659e+06 2.16948e+06 
-992592 566982 716727 23327.5 167504 -489991 
502832 -582474 -910005 13383.7 419542 691903 
-352421 1.79482e+06 108282 1.6519e+06 157372 1.61418e+06 
1.50018e+06 147793 -887193 138816 507017 269845 
-1.07759e+06 -400734 1.15045e+06 -1.34915e+06 -1.57683e+06 -263484 
588808 1.05108e+06 717977 -1.0444e+06 -234810 1.66747e+06 
1.0262e+06 -1.31265e+06 346372 -715553 346332 -1.28844e+06 
-4986.51 -429780 983463 424293 1.24728e+06 -636558 
1.10248e+06 -180109 871730 -327289 -926573 532298 
-1.28776e+06 -1.12038e+06 2.26522e+06 155344 -643443 260693 
-470364 801457 602488 1.01495e+06 224204 161136 
-644211 -1.9911e+06 -649479 -486010 218585 1.66965e+06 
-817083 1.41374e+06 1.39692e+06 -968909 -113738 1.06344e+06 
-17028.5 1.4043e+06 -490967 -18116.4 -588979 434051 
-3.63868e+06 -1.69368e+06 -2.0506e+06 959534 -697151 827774 
1.17463e+06 -143429 464447 -1.28813e+06 -216933 -76337.8 
587355 -2.27508e+06 -138164 220991 -1.34719e+06 128200 
-2.02653e+06 -280904 -1.79628e+06 -1.30543e+06 464351 1.37801e+06 
1.73718e+06 -25899.5 243006 1.68989e+06 -499160 1.0947e+06 
-1.65802e+06 464653 -1.29513e+06 861498 -223418 -923610 
2.50277e+06 339707 133325 -489357 454282 1.06482e+06 
-798960 -150898 -609815 -314766 -818593 -699053 
-534324 -178700 -831324 3221.66 -519287 -165477 
-4.03121e+06 679408 -1.20608e+06 -1.39914e+06 2.26988e+06 343048 
-78104.4 -1.12186e+06 495020 1.0041e+06 1.25213e+06 78887.1 
262376 -1.75825e+06 -503419 1.21726e+06 946420 2.04958e+06 
2.10222e+06 -470932 1.14902e+06 875395 -689402 249173 
3.70923e+06 -849477 706580 923623 -846039 -577617 
-109742 961503 1.12885e+06 818167 1.37675e+06 -41379.6 
1.18085e+06 -115029 2.56838e+06 1.09405e+06 36454.1 222632 
711544 -1.33663e+06 -811522 1.03986e+06 -1.21598e+06 496930 
1.62837e+06 -1.34383e+06 1.61559e+06 -427626 -525213 -942938 
-124383 -1.09678e+06 1.97341e+06 -367179 -562532 -110903 
45074.8 -1.75947e+06 939697 516065 669292 1.55059e+06 
-713809 -1.77979e+06 82106.8 452209 -564659 413077 
2.68591e+06 364915 -1.05833e+06 -2.14633e+06 -993989 95213.5 
2.34065e+06 2.82101e+06 924016 506233 -1.46117e+06 -28557.3 
4.72857e+06 -103944 575164 1.93321e+06 -845443 -5479.8 
-164815 158858 -200101 380647 1.71965e+06 -1.34842e+06 
-787737 885371 338546 -9965.28 -1.10474e+06 -971898 
-1.14957e+06 -2.02692e+06 1.70586e+06 -990694 1.12864e+06 1.57195e+06 
609844 94865.4 27261.5 -208196 200435 677578 
-829119 1.65442e+06 2.31708e+06 -809313 782758 1.21422e+06 
-3.13402e+06 -2.44946e+06 1.81962e+06 302271 1.20729e+06 63843.3 
497886 -1.99703e+06 111133 -289849 -950698 -522881 
-2.12165e+06 1.11174e+06 -38785.6 -1.08702e+06 -1.40455e+06 10210.1 
1.01878e+06 -344713 1.52484e+06 311100 -322904 -515761 
-4.05328e+06 -1.27586e+06 -871082 -1.11497e+06 1.82854e+06 748856 
2.03131e+06 194824 1.85971e+06 -1.59376e+06 -1.49606e+06 -487501 
59658.5 -109125 -224814 -801701 207400 668325 
2.24591e+06 802582 -426652 391605 1.20095e+06 673610 
1.04392e+06 1.08209e+06 989614 1.19244e+06 932543 -767578 
-1.01171e+06 -408754 -1.04026e+06 -290433 -107587 987412 
23550 -700242 -1.13549e+06 -78001.2 1.29698e+06 315593 