ITEM: TIMESTEP
23800
ITEM: NUMBER OF ATOMS
1556
ITEM: BOX BOUNDS pp pp pp
0.0000000000000000e+00 3.0577600000000000e+01
0.0000000000000000e+00 3.0577600000000000e+01
0.0000000000000000e+00 3.2189100000000003e+01
ITEM: ATOMS id type x y z fx fy fz 
24 1 1.71278 6.24618 0.414864 -33.0871 -25.9637 -32.2253 
112 1 5.63486 3.1869 7.46446 0.922556 2.64148 11.6033 
157 1 7.21203 0.750044 4.13913 -14.6926 8.35358 8.12705 
278 1 6.13399 7.47466 1.0869 8.01265 7.32929 8.62396 
313 1 7.39047 4.66868 3.36983 0.746253 0.0747046 31.653 
338 1 5.23949 9.57535 1.92601 9.22517 -1.9391 18.64 
358 1 0.592523 3.66387 7.2015 -62.217 -42.0382 -8.89023 
543 1 5.10208 1.07212 4.48395 4.47736 -12.1511 -24.7516 
567 1 6.73117 2.37639 0.733769 3.85915 3.58561 25.1503 
637 1 3.34411 4.53942 5.03158 7.28797 34.7725 2.39501 
691 1 0.325671 4.44495 3.37556 -27.5521 1.16802 -18.6022 
692 1 2.81594 9.7355 2.20845 28.4198 9.17536 -16.8933 
813 1 1.56865 7.13549 7.06654 -39.8517 -29.3554 52.1999 
866 1 2.43622 7.82057 3.32882 -42.8471 6.64621 -11.0995 
902 1 4.548 9.39045 7.03624 -16.2438 -41.6747 -6.98139 
906 1 4.99682 3.96363 0.933571 -22.8749 12.0937 -24.3187 
943 1 7.123 4.4797 5.53624 -5.04728 20.058 -26.7826 
991 1 6.99759 6.83208 6.07336 70.1756 -76.1145 30.138 
1031 1 3.0545 2.75479 1.60901 17.1871 -20.9432 -6.76427 
1194 1 2.12276 3.28144 3.52095 -8.04586 6.0443 -9.27237 
1195 1 5.38792 7.98379 5.28902 -63.3885 60.4513 -35.4687 
1237 1 2.58574 8.35138 5.67 31.6312 26.387 -50.2004 
1349 1 5.50398 5.62079 2.4082 5.08008 7.58927 -6.9903 
1398 1 5.53124 0.34617 0.47791 23.2201 -40.2234 5.43738 
1399 1 6.29889 9.64793 3.80615 -6.78227 -9.05922 -4.61402 
1474 1 0.695015 6.71633 2.55923 0.718186 -6.20896 -2.6257 
1497 1 5.04557 3.26206 5.38075 25.2188 -0.403529 33.6204 
1498 1 4.07422 6.63612 4.02998 17.1547 -60.9146 13.6056 
1508 1 2.30646 4.95083 7.14685 47.8063 2.20891 -15.8872 
1512 1 4.03648 0.841566 2.28617 -6.79732 9.5211 23.099 
218 1 6.82668 1.27794 7.95068 0.528555 7.89045 -8.16531 
776 1 2.33439 9.93576 0.0711679 -9.35669 4.33601 23.793 
888 1 13.3164 6.91856 1.93481 -17.0248 4.67354 27.7928 
251 1 11.71 0.0735659 7.97853 -0.367528 -2.63149 0.0220678 
1329 1 9.05373 6.19524 2.9672 -2.55676 -1.20463 -16.3963 
347 1 13.9319 9.78564 7.86673 5.42699 12.6152 -2.47496 
12 1 11.4641 7.09884 3.48782 20.1757 -18.8541 -22.9594 
443 1 15.0031 1.81834 7.95602 11.2923 5.42284 -2.58724 
192 1 11.8624 4.60344 0.704762 -16.5588 -29.9171 -3.58767 
198 1 10.9908 1.80373 0.595032 3.39134 35.2681 11.9507 
228 1 13.4364 0.581231 4.46039 1.62577 -4.51297 -1.08433 
331 1 10.0749 1.74276 2.53201 1.64574 10.2194 5.45493 
52 1 12.5711 3.54823 5.82714 -54.8692 32.9663 51.9917 
626 1 14.8376 3.63627 2.59302 11.925 -28.5799 18.8248 
428 1 10.1663 8.87427 2.36777 105.888 -56.5559 -81.1532 
821 1 15.1894 5.76283 2.57366 -12.4428 29.0145 -6.41621 
1380 1 8.33304 1.21814 6.1181 17.5691 18.4689 -6.21313 
524 1 10.2322 8.1614 6.77992 -9.71156 -18.7235 28.8756 
424 1 14.2622 2.81806 4.75735 69.4848 -19.6137 -20.3148 
357 1 9.11956 3.27481 5.96549 -11.8613 -23.9707 16.2084 
266 1 12.0517 2.33716 7.9118 9.9695 0.687858 -29.1656 
509 1 11.0157 5.10346 2.88455 -1.54488 28.6456 0.239021 
970 1 10.8609 3.31957 4.31321 -17.1353 -6.75426 -7.46378 
666 1 8.50906 7.13289 0.807772 3.61481 -11.4735 -10.1317 
736 1 8.88185 7.64868 4.92049 4.22315 13.2866 -2.00037 
753 1 13.2424 2.84344 0.948478 -11.0556 6.72225 -10.6121 
600 1 7.78715 2.46174 2.60395 7.40876 -4.75014 -19.564 
623 1 13.9737 0.233261 6.73614 5.87622 15.8498 -15.2408 
138 1 12.1212 7.49095 5.65867 11.4299 -14.8037 21.3734 
1456 1 13.13 5.78573 6.64804 -22.5406 5.77513 -22.1782 
861 1 13.9558 9.07581 2.35661 4.59691 -0.333106 2.4698 
620 1 8.70217 9.65798 3.67694 -116.024 57.1271 81.8309 
806 1 13.594 9.29449 5.7903 7.04734 22.8326 4.98289 
31 1 4.16755 4.77515 12.7029 0.464909 12.6895 26.3038 
131 1 3.6122 6.56065 14.2653 9.75582 -4.51876 -5.65643 
311 1 6.85305 1.59721 12.0078 -3.26681 -10.0832 -9.43979 
317 1 4.3176 8.30485 12.7329 -26.3422 48.5576 6.72712 
351 1 4.06536 7.58357 10.3897 -14.4718 -17.7202 11.5003 
487 1 2.78624 2.02254 9.55811 19.2039 -62.4171 59.8929 
500 1 4.14268 5.45896 10.449 7.51835 17.3336 15.0864 
525 1 6.16641 4.69727 9.35926 -0.795703 31.0734 -19.4878 
535 1 6.62079 8.87202 13.2543 -3.16386 -34.288 -11.455 
576 1 7.0199 6.75078 8.40948 10.0462 1.95027 0.0205111 
615 1 6.83993 5.39701 15.0852 11.0001 18.2935 -30.9589 
838 1 6.29548 4.05461 13.1121 -5.76149 18.4956 22.241 
856 1 2.79943 3.30632 13.4444 -14.3581 -26.1309 -29.1591 
875 1 6.3906 2.11128 14.0478 11.7319 -7.85405 13.5267 
1041 1 5.64712 8.58578 8.93195 9.64492 22.2139 15.8085 
1082 1 2.76214 8.51236 8.52701 35.716 15.1249 17.8533 
1282 1 3.68626 3.81964 8.81877 32.0944 77.9193 -64.095 
1440 1 4.10176 1.59719 14.5728 -3.46252 10.7957 2.25613 
1457 1 1.54792 2.49764 11.4785 41.4981 50.2229 21.3664 
283 1 0.187226 0.924948 11.7389 -31.7114 -13.9372 28.9789 
724 1 3.16252 10.0413 13.3036 27.3905 -51.5097 0.13623 
297 1 7.46084 3.78953 11.0438 16.6383 -12.0328 -15.1898 
1556 2 1.22685 1.7648 14.6911 -5.95396 -0.219763 5.19443 
723 1 4.82359 6.3366 15.9965 -7.43074 10.1673 -37.9262 
1225 1 4.13905 0.0098213 9.84593 3.21065 3.12702 31.7474 
477 1 1.26772 1.52954 8.09086 -25.9596 -36.2564 -52.6119 
728 1 13.5058 2.68409 9.46695 4.43163 11.1064 18.5031 
109 1 11.3508 0.0945732 10.3558 6.01131 7.75913 -2.07187 
11 1 15.2287 8.50498 9.32392 -4.05606 2.1904 15.7067 
1091 1 12.6953 8.20953 14.506 -3.47898 -13.7673 -10.0573 
1002 1 13.5131 0.408013 15.2815 8.99199 -3.12552 15.7675 
1087 1 8.00353 9.78431 11.5769 16.9207 0.978901 -2.21006 
1156 1 14.196 5.58551 11.9437 3.84254 -2.53535 -30.4248 
1231 1 9.70173 8.21302 10.9487 -1.74889 3.9464 -6.39824 
1239 1 12.5503 1.59882 11.3456 -0.726268 -1.86984 -7.9899 
1371 1 9.6233 6.51752 12.6716 25.8715 -17.9569 -12.2319 
8 1 12.7374 4.51685 13.247 5.67879 6.80307 13.0178 
1531 1 9.92074 3.24408 8.25635 5.76832 18.9649 15.5994 
1037 1 12.5313 5.8579 8.93241 40.2356 4.40051 29.1113 
965 1 11.8519 2.91343 15.5982 14.512 29.2611 5.1298 
9 1 8.53513 0.489846 13.0953 -5.63798 7.07714 -3.56499 
113 1 11.6275 6.33207 14.0431 -22.5108 -2.00508 4.93247 
1060 1 11.6135 5.04706 15.9209 0.218114 5.48998 -2.39828 
135 1 13.4133 7.56271 10.6988 17.2913 -0.918816 -16.6911 
291 1 8.9971 0.243966 10.7521 10.8196 -2.55249 -15.4547 
275 1 10.9131 9.36258 15.651 -22.3742 7.65822 -2.08762 
197 1 9.31786 7.09226 8.82735 6.28228 4.65298 -17.3071 
137 1 11.2114 3.14959 12.5616 -27.6194 -8.95161 -7.18524 
334 1 10.4515 5.06396 9.32739 -14.5607 -0.277619 -24.7149 
574 1 13.2945 9.20302 12.6895 -2.87348 -13.2642 3.24258 
640 1 14.1954 4.76742 9.82376 -19.4728 6.20854 -14.805 
685 1 9.63333 4.70345 11.4822 3.67135 -5.0862 32.8639 
726 1 11.5786 9.25179 10.8005 3.55949 -18.3809 -10.5943 
655 1 14.0437 2.88836 14.2776 31.1276 8.39616 0.0428 
654 1 7.91397 7.07397 14.2355 -9.8598 -22.1548 12.4026 
730 1 14.155 0.811192 12.9989 4.30749 4.74952 -4.63548 
105 1 8.29431 1.95582 9.57842 4.38732 -18.0213 25.7594 
758 1 10.2997 1.60121 14.2427 12.4281 0.777869 -16.0067 
884 1 8.35061 1.9529 15.4851 -18.3352 2.99732 12.8321 
57 1 6.7267 9.44478 23.3887 -18.156 -1.48767 1.2779 
180 1 3.99377 5.36433 18.0241 41.8504 74.4292 3.74845 
233 1 1.97927 7.34743 21.2586 -58.2661 -2.81235 26.0542 
245 1 7.01289 3.15719 18.6445 7.61893 30.4086 -14.4231 
270 1 5.88294 1.20159 18.0262 -6.79642 -7.02754 32.8738 
281 1 2.43847 0.424407 22.7419 6.14046 11.3118 -22.8986 
348 1 5.81588 0.371316 22.2943 55.6754 8.5477 2.53061 
373 1 5.36329 7.91979 19.5553 6.50331 -1.50302 -9.15792 
445 1 3.79458 1.63154 16.9321 -14.4202 17.0438 -3.41097 
468 1 0.884077 5.89577 22.9159 16.8225 3.10608 -21.9472 
488 1 1.29631 9.8443 17.623 8.06551 -17.9819 6.87396 
503 1 1.04248 3.74876 21.8417 11.9605 -9.05345 18.9421 
564 1 3.23941 0.798087 20.4701 19.2619 43.2786 33.3007 
570 1 7.22454 9.08215 21.0358 -24.3536 12.2417 -7.78955 
737 1 0.660578 8.69762 19.7224 22.9199 6.71655 -27.8595 
780 1 4.21303 4.35252 20.801 60.8623 26.7725 72.2585 
914 1 7.08331 9.4071 16.7305 1.8023 1.07896 -9.40209 
944 1 2.75178 3.71445 17.8045 -51.1053 -89.4609 -24.0851 
1004 1 4.79238 3.92946 23.1979 -23.682 24.6648 -15.5703 
1079 1 5.49202 6.23282 22.6445 14.6681 -46.2583 -25.8262 
1175 1 5.92391 4.87043 19.3409 14.9513 -9.99514 -3.26736 
1326 1 2.61543 3.13084 20.1029 -44.9826 -57.1899 -8.94696 
1382 1 3.09019 8.82466 22.437 -4.20038 15.5091 51.699 
1438 1 3.94253 6.66175 20.7741 42.3455 -18.471 -43.0488 
1488 1 5.05369 8.26842 17.435 18.2071 1.97193 24.7692 
1505 1 4.8507 9.88374 21.1346 17.0402 2.24707 10.8386 
1532 1 2.53589 2.79643 23.0882 -20.2022 9.91291 -26.6318 
1535 1 6.47547 2.62683 23.1191 12.2775 -27.8961 15.4365 
241 1 7.3219 6.82432 19.6874 18.6612 -4.42462 -2.05568 
390 1 3.41823 9.99644 17.4372 -20.6803 -1.77464 -21.1725 
492 1 7.46732 0.166896 16.7799 -10.4482 -8.89125 8.08317 
783 1 5.48372 0.120956 19.8846 -4.01529 3.48024 -11.6972 
152 1 0.037019 0.114433 16.2535 -12.5718 -12.7853 19.3012 
1030 1 7.73245 6.05455 21.6506 -35.1665 24.2524 5.41186 
264 1 10.9106 8.20413 18.9615 46.5926 -35.9248 -99.2483 
115 1 11.6528 2.26297 17.995 8.38267 -5.6086 -20.253 
273 1 13.4203 6.06295 17.1803 3.47562 -12.3152 17.9104 
286 1 14.8922 5.36663 22.7973 0.823972 14.346 -24.2062 
290 1 9.16645 7.01929 18.0829 -0.690126 -13.2677 -2.39574 
69 1 14.2725 9.95041 17.185 -19.279 -0.933542 -27.8389 
1252 1 14.4425 7.94442 16.1795 -12.8292 -4.6225 -24.9609 
396 1 15.034 4.34722 17.5687 -17.7221 15.8537 -27.8004 
410 1 11.9086 5.06218 20.3999 29.4507 12.2841 38.6319 
298 1 14.7788 0.187672 17.053 18.647 18.7235 -7.55657 
463 1 13.4311 0.986209 18.939 21.8702 17.8411 28.2428 
632 1 12.0397 0.595448 23.138 -1.80528 -5.37789 -8.11428 
547 1 11.1637 5.95018 22.5369 -17.1998 -23.5239 -3.11822 
412 1 10.1458 0.864226 16.9552 8.28042 10.8112 -12.9053 
501 1 14.5867 2.3273 20.6825 -5.19808 -1.86118 17.844 
71 1 13.8228 2.51647 16.6253 1.94921 -17.2681 22.1894 
749 1 10.6505 3.76917 19.2213 -3.94789 -14.819 -18.322 
999 1 8.03906 4.01899 16.6179 23.9293 -14.2313 10.6075 
985 1 13.4316 3.83477 21.8888 -9.80253 -5.98724 -32.2256 
1045 1 9.8642 4.97971 17.4233 -35.6771 18.1986 -17.076 
1120 1 12.099 2.91044 23.424 -8.27484 -10.6481 -11.8923 
1121 1 8.26749 3.81867 22.0292 12.0426 -27.0319 -31.0034 
1128 1 13.4386 8.70253 22.2997 24.2912 -12.2245 -3.161 
1236 1 14.2153 7.89067 20.3241 -18.586 -19.031 -5.66024 
667 1 11.4802 9.54734 22.296 -43.9574 -0.503409 26.196 
1238 1 12.6816 6.77862 19.2296 -12.442 0.16746 10.3769 
822 1 8.80071 2.776 20.1829 -9.79455 1.92688 42.2494 
1358 1 9.94814 9.07656 20.6096 -17.4762 23.3726 77.4032 
1279 1 11.848 9.87845 17.5206 4.48283 -0.726881 9.39625 
1407 1 9.13239 0.422057 20.6302 -9.02245 0.388087 16.7833 
1412 1 9.39584 7.50708 22.3524 6.46941 8.56905 -8.10859 
1510 1 13.1445 6.80733 23.5965 4.5431 -3.24607 4.97575 
1514 1 10.1101 4.24327 23.4288 14.0205 29.013 -1.67265 
1240 1 15.1642 9.65089 19.1171 21.4132 22.2453 32.0545 
449 1 8.77518 8.1703 16.1234 18.3572 16.3855 7.31756 
6 1 3.16956 9.82533 26.2789 19.0801 -1.3057 39.2739 
23 1 4.0719 9.50957 28.2515 -23.4519 -3.47698 -6.20712 
98 1 2.79671 7.95134 31.4296 28.2775 4.69047 -7.41187 
166 1 6.0736 0.648972 28.6416 14.6482 5.05367 -9.83405 
211 1 5.4415 7.59083 24.3022 5.14859 35.3896 55.0832 
306 1 2.11122 5.96033 25.0494 -7.64677 -19.3569 -4.95119 
329 1 6.82818 4.69556 29.9317 5.16507 -17.8001 -7.93169 
349 1 6.12266 8.75797 27.9503 -2.15004 57.1601 -13.8995 
506 1 0.67735 5.59165 26.9888 -22.4027 5.78918 4.98982 
548 1 5.15031 7.22832 31.3744 -39.7248 14.8498 -12.3963 
643 1 1.31267 2.42016 25.2284 -1.87143 5.3296 35.6613 
854 1 2.41733 7.90743 29.2887 22.7672 12.4724 0.339743 
908 1 6.46491 4.75989 27.4553 16.5807 9.36549 29.8927 
918 1 4.95015 5.0472 30.9466 13.5493 -31.9609 -4.25381 
930 1 5.30593 1.45624 26.5882 0.544316 -2.13161 24.1232 
978 1 1.78964 0.56694 26.2209 11.8434 18.7396 -17.9267 
1068 1 6.4425 6.99956 26.5135 -5.79636 -12.0777 -22.7329 
1074 1 6.7706 8.23395 29.9581 -9.91127 -17.3263 15.8573 
1094 1 3.18286 4.09807 25.0959 -10.1156 24.2316 7.86936 
1105 1 3.30072 8.07129 24.8053 14.3932 -7.12583 -36.638 
1110 1 1.36827 0.696482 28.515 -21.2229 30.3627 24.3155 
1111 1 4.53877 0.240917 30.459 11.211 18.8847 -14.8703 
1176 1 3.45978 4.11019 29.2471 -39.2689 26.0628 12.3746 
1223 1 0.354012 8.83822 28.6454 -23.7865 0.615118 -18.1195 
1235 1 7.24943 0.701122 30.7782 -0.830967 22.1751 1.2406 
1265 1 0.467869 5.35858 31.1021 8.51838 18.0662 36.6085 
1267 1 1.8439 5.56745 29.0937 29.6622 -39.3591 -10.0228 
1378 1 4.44676 3.62702 27.1032 0.0343743 -2.58244 -9.59963 
1461 1 2.84625 1.91762 30.1286 -54.3259 -29.4849 10.4674 
1487 1 7.25451 1.99733 25.3126 4.53092 22.8915 -3.21641 
128 1 1.70919 1.88132 31.9728 33.349 -18.5898 -9.37113 
689 1 7.5849 2.49011 29.0145 -30.0354 -6.60965 13.1337 
538 1 0.160164 10.0257 24.8386 3.91905 -6.87172 25.4757 
642 1 14.1905 2.25727 31.096 6.3963 17.4981 -11.9041 
684 1 11.6174 8.89748 26.4768 -4.465 15.1595 -11.5455 
663 1 11.9215 5.04371 28.5159 1.13834 4.62736 -2.47491 
1338 1 12.8392 6.36298 32.0871 14.8183 2.58576 -7.70308 
865 1 10.2301 3.62359 31.3243 -1.96891 -4.38325 32.2961 
716 1 8.07098 9.71171 30.8976 27.7241 0.228729 9.22899 
415 1 9.01747 10.0858 28.8528 -0.803347 13.8794 -32.3628 
1521 1 11.5745 7.858 30.8413 10.3297 3.40007 15.1951 
1092 1 12.692 3.34784 25.4355 8.37759 13.8675 24.3445 
1107 1 13.5683 1.84508 26.9579 22.0182 -11.1079 9.05982 
435 1 9.79664 0.168264 27.1454 35.5296 63.1528 -48.5891 
1029 1 9.59652 5.06739 25.4255 -12.3993 -16.5421 10.1519 
1109 1 8.22131 3.54695 26.4996 -1.87406 -6.40988 -22.9611 
1452 1 14.9207 6.01407 31.0442 8.10812 -1.72896 -13.2945 
1171 1 8.86966 5.66665 31.0548 8.55586 -1.40779 15.2218 
1151 1 12.7819 1.68309 29.2542 10.4733 12.148 14.6569 
1207 1 10.576 9.98507 24.5261 13.7643 -13.7002 6.27388 
1499 1 12.8782 6.9851 25.7393 8.68055 22.6152 -14.0447 
1259 1 11.7432 5.08384 26.3075 4.90099 -8.29605 0.283517 
1135 1 14.9405 7.49199 29.0924 -11.3504 8.60437 14.7929 
1205 1 14.9823 7.23382 26.6644 -8.15831 15.313 -2.73453 
1316 1 10.4692 6.71287 29.4145 -9.24257 -31.0774 -7.92953 
1247 1 9.84464 8.16 27.7628 -2.70871 -5.48265 -0.274217 
61 1 13.381 8.90926 29.6776 18.139 10.9137 7.63689 
134 1 8.5546 7.12048 26.1008 16.9769 14.3318 -18.9194 
153 1 7.92022 6.58711 29.063 -5.56048 -1.22683 -26.1563 
249 1 9.48063 2.27237 28.091 -21.3752 -13.535 -29.7309 
389 1 8.07399 2.97141 31.1992 -6.64501 25.4859 -8.00281 
1381 1 8.66611 0.237437 24.9625 -10.0439 4.17935 -12.0256 
993 1 14.0623 5.25403 28.4911 -18.837 17.123 12.9532 
441 1 11.0869 3.05212 29.3291 21.1261 13.6216 4.76351 
871 1 8.77282 8.63715 24.3117 -4.8471 5.69764 -0.371664 
657 1 12.5466 10.1806 27.9952 5.15539 -25.484 -12.9657 
1352 1 15.2614 3.85869 30.1669 -0.786274 -15.1617 -5.77419 
744 1 9.95677 8.94878 32.122 -13.4426 1.83492 18.1829 
84 1 3.52141 17.0665 5.37213 6.55279 -10.4324 11.1649 
106 1 3.14412 18.3667 1.52552 -21.1182 -42.1493 -3.30225 
121 1 7.17275 14.7723 6.52795 14.4 -15.5783 -10.4297 
127 1 1.94001 16.6118 1.85546 24.8518 5.54938 1.22499 
163 1 3.52441 16.5654 7.47861 -5.52588 -4.44737 -32.3903 
234 1 5.50721 18.1822 0.955479 -6.25383 14.1407 48.7481 
316 1 6.91425 16.124 0.763795 22.2129 1.21955 -16.3321 
350 1 2.214 18.9725 5.10654 -19.0814 7.01287 -12.1309 
369 1 0.247276 15.6761 4.04447 16.787 10.4044 1.71653 
376 1 2.40995 10.7292 5.62359 -28.8683 25.3039 2.15912 
420 1 5.81644 17.6123 4.8661 17.9668 2.18003 -7.89621 
431 1 3.42114 13.4672 3.07537 -27.3044 12.8329 10.1644 
523 1 4.45956 11.4304 6.4501 8.07064 26.983 6.29248 
534 1 6.35729 18.8271 3.07447 -18.2186 48.4028 18.2194 
555 1 5.95354 11.7245 4.69524 -33.889 -16.4262 -12.714 
573 1 6.07355 19.027 6.82884 0.571092 -6.80659 11.8546 
587 1 2.04706 11.5549 3.55875 15.6265 -10.3024 -16.7122 
619 1 7.21329 14.756 2.72467 13.5635 -21.1453 -25.9727 
635 1 7.27935 16.0235 4.67827 -18.7469 8.09843 35.1886 
646 1 5.56666 11.5966 0.87024 -12.175 -3.93446 -5.35926 
754 1 2.61366 20.1036 3.02568 -3.72443 -2.53378 -14.33 
793 1 2.37757 15.4909 3.98947 12.9245 -5.23847 -23.1309 
846 1 5.50279 13.0704 2.79526 25.7457 -9.50945 0.771456 
1014 1 1.03465 11.6135 7.02988 3.19 -15.11 -2.51459 
609 1 2.81743 20.3733 6.89724 -3.8755 -3.51445 22.413 
1197 1 2.99322 14.7518 1.2292 -14.6098 30.0289 3.84186 
1384 1 4.25548 18.8225 8.00109 4.57346 -7.16429 -22.2085 
1106 1 5.28474 15.0308 7.95411 -25.9046 5.32405 -14.08 
1216 1 7.45964 12.4723 6.00136 39.9901 10.1278 17.1397 
474 1 4.49885 16.1866 0.112036 -6.87735 -26.6352 -6.99615 
381 1 1.50114 15.2869 8.03277 4.0122 10.6683 17.6077 
483 1 15.2463 12.986 6.4299 23.8927 13.3463 -12.1206 
332 1 12.5728 11.4167 0.436496 -19.4858 20.1273 -41.9803 
1538 2 11.3782 20.1282 0.282902 -1.43338 -4.9424 -5.8026 
326 1 10.3056 10.2985 7.44545 -15.9129 -10.9325 -3.55102 
461 1 9.26686 16.6263 3.54419 23.7059 15.2825 23.7836 
551 1 9.02752 15.2754 7.73834 -14.9806 13.7392 3.2417 
484 1 13.1176 19.9329 6.36015 -11.6616 -13.9516 -1.50478 
398 1 13.6879 13.0648 4.67642 12.876 9.88305 -11.1198 
597 1 12.599 11.2037 4.70925 -14.2179 4.30986 -3.25956 
708 1 10.9798 13.3971 7.58979 4.43213 4.92364 42.0762 
556 1 9.15559 11.8671 4.35703 -12.4941 -3.77212 36.0025 
779 1 9.63405 16.8686 5.91845 4.21967 -21.4968 -16.4247 
740 1 14.1616 16.6669 4.62355 2.57695 6.37423 -14.2188 
621 1 11.7761 15.3427 1.05178 -8.06101 7.9766 3.0882 
1477 1 8.84726 18.086 0.135613 -8.51117 21.6317 -28.7022 
799 1 14.7664 17.7505 0.349564 3.05312 7.33116 -14.6003 
808 1 11.5403 15.5185 6.72059 -8.34717 5.55935 -8.13503 
843 1 14.83 13.431 2.55302 -67.7495 56.1502 41.8913 
868 1 12.5862 17.6032 0.986831 -16.0904 6.739 3.99551 
934 1 12.2009 19.1419 2.82174 -22.4034 8.81703 11.2202 
1065 1 8.45142 18.3146 2.18032 6.78297 8.42271 33.5068 
1125 1 9.27421 13.4153 2.59084 -27.762 8.9553 -2.48821 
1188 1 12.4851 15.1848 4.80121 -9.59474 -24.8305 -1.26295 
977 1 11.827 18.8186 7.7448 34.2722 2.76483 11.7542 
1444 1 12.1716 10.2804 2.50744 18.2744 -7.47319 4.17922 
22 1 10.7474 11.7945 5.83487 12.2776 -13.2887 -24.4123 
116 1 10.8916 15.0922 2.9887 -0.450785 4.00038 -8.08335 
162 1 14.8665 16.7591 6.82156 0.359767 2.18224 16.7322 
238 1 10.3025 18.9055 3.84655 4.30727 -42.9162 -14.2368 
246 1 9.27219 12.688 0.276176 22.5784 -2.47048 10.6911 
250 1 13.4167 13.6808 0.669465 0.595094 -16.9527 3.32297 
276 1 9.69556 18.8048 6.77447 5.59366 -0.875892 -17.9722 
280 1 13.7719 18.813 4.32316 6.79103 -13.7502 -4.95886 
1537 2 9.48277 14.2947 5.14949 0.937939 6.69287 3.66151 
3 1 3.61708 13.7178 13.4366 -6.99276 -12.0999 -3.48178 
80 1 4.26469 12.9467 8.31225 32.0545 -24.1183 0.936572 
302 1 6.71711 10.3596 9.69276 -29.7404 -11.5483 17.2125 
356 1 2.16878 16.6727 11.7053 28.8209 -73.6928 -23.2162 
401 1 2.11851 13.0054 8.44998 -18.4031 4.57233 -3.39845 
409 1 3.68312 12.8311 15.4822 7.63383 8.12425 -7.01688 
434 1 1.26922 18.5869 11.992 -16.8958 63.6386 0.924483 
563 1 4.48437 19.2626 10.2875 -17.2712 -4.18823 -17.6639 
593 1 5.92636 15.7931 9.86022 14.9245 19.2925 12.7118 
599 1 1.5542 18.776 15.8054 -17.9607 -1.32663 -18.6532 
766 1 5.23758 12.1681 10.4104 -9.90015 -20.6542 -33.8119 
797 1 1.9737 15.4156 13.6023 0.136857 2.55739 9.31342 
805 1 2.50655 20.135 10.628 -14.4289 -5.76646 -4.3787 
953 1 6.46063 13.9244 11.1864 2.72605 5.81877 14.3156 
962 1 5.73927 14.6171 13.1197 11.2998 5.62143 18.8821 
963 1 4.6198 17.1979 15.4006 -33.295 -1.06496 20.8015 
1007 1 1.53784 12.1365 10.5991 1.50742 -12.3674 6.50424 
1139 1 7.15006 13.9954 14.9855 -10.6384 19.3526 -13.3678 
1209 1 0.744741 15.5987 10.0228 0.143902 26.5935 0.562682 
1214 1 4.41546 17.2094 11.1893 19.5591 -1.76803 -5.21637 
1251 1 2.48991 16.7232 15.574 30.9805 -5.20231 -3.78531 
1257 1 3.29663 11.8998 11.8163 12.0837 23.078 17.1628 
1427 1 5.53425 16.9532 13.2338 8.45726 3.77185 -17.4336 
1485 1 6.44225 10.3571 14.8057 -5.65316 15.1658 25.1752 
1516 1 1.43811 19.7622 13.8691 -8.44054 -10.6953 12.1397 
1522 1 4.11056 10.7202 15.2106 -11.4113 5.3401 -4.97905 
202 1 1.18351 10.1941 9.02528 7.31298 45.7896 6.57362 
733 1 7.53473 18.2624 12.9888 -27.6117 -24.3287 12.8997 
1463 1 0.0120514 13.6334 11.1853 -0.901001 4.52345 18.7831 
66 1 13.8195 13.5669 15.992 11.2383 -51.1053 3.45263 
777 1 12.2688 12.8498 9.23776 -34.3903 8.83389 -45.9955 
366 1 14.3011 11.933 8.33722 30.8821 7.26411 12.2532 
201 1 11.7802 18.4629 15.9335 14.0684 7.27573 14.1874 
959 1 12.8048 17.7564 12.2041 12.4504 13.1074 -13.3548 
933 1 9.03721 17.3799 11.4039 41.6823 -4.20423 1.84115 
1351 1 8.87883 13.1423 8.88586 38.7735 52.0041 27.3094 
1250 1 12.039 13.2313 14.3692 -9.39345 5.82201 -24.2253 
460 1 11.5955 20.2623 9.67524 -17.3463 4.55314 -0.22296 
1170 1 10.433 11.4131 14.6103 -0.58087 13.1302 2.20691 
665 1 9.10193 11.4369 12.4119 11.9953 15.4009 -21.1537 
1467 1 11.9067 10.5032 8.88592 -5.63993 -9.49561 11.9088 
213 1 7.99502 12.1209 14.4235 13.0845 -39.7457 27.3247 
147 1 14.3496 15.8526 15.3115 -39.3998 -7.20143 16.1952 
550 1 9.92838 15.189 11.9942 -14.2123 14.8835 -13.5264 
325 1 13.3888 16.1679 10.5181 -1.27181 -19.2737 17.7677 
872 1 11.9373 14.6292 10.8436 19.2409 7.44638 -3.67176 
892 1 8.63245 13.4782 11.24 4.30695 -13.4767 -3.88972 
1314 1 10.925 15.0772 14.1289 10.6155 -21.2823 41.2798 
380 1 13.1332 16.7224 8.09126 -23.1803 17.3981 1.57274 
181 1 8.03374 16.842 9.34114 -0.281171 -2.48704 -7.52366 
403 1 11.6824 11.0987 12.3647 10.4899 46.0905 24.6424 
144 1 8.15767 11.3214 8.07073 -7.00818 -34.2408 -39.6088 
430 1 8.39843 17.8306 14.9075 -3.82726 -20.3093 -9.06519 
486 1 12.3657 16.8646 14.3182 14.4582 -22.4101 4.95762 
575 1 12.8223 12.8905 12.1012 0.593295 -33.2792 -3.42415 
606 1 10.9806 18.8945 11.529 -38.9375 -6.43055 -14.4171 
750 1 14.3998 19.3186 12.4046 -5.83889 -7.10167 13.966 
775 1 15.2297 13.0388 11.9152 -10.5893 -17.721 -9.15239 
1181 1 9.53111 19.2226 16.0762 5.80842 18.6097 3.44235 
1245 1 15.2135 11.92 15.9955 -11.5452 40.8428 -12.3663 
159 1 13.1442 20.2856 15.534 7.58023 29.0066 -14.1563 
305 1 7.9039 18.7987 8.08274 -10.3374 10.3385 -1.96955 
13 1 4.30975 11.2663 19.2311 22.8346 12.2333 0.143505 
76 1 2.93378 18.8859 21.0549 -0.020078 -23.5637 5.64607 
101 1 0.348152 10.6914 21.2239 17.9989 -0.770848 17.0496 
136 1 4.40447 12.2255 21.9126 -5.75274 -20.565 17.8171 
150 1 6.31908 19.8486 17.8859 -6.28228 7.87292 15.7531 
227 1 0.533762 12.0899 17.8695 2.84417 11.8236 -20.2903 
242 1 0.60784 19.964 19.8824 17.9178 -19.6819 -7.96428 
252 1 1.6162 10.3508 23.0225 1.43767 -15.7135 -17.112 
301 1 0.983813 12.4735 20.1466 11.6884 13.2398 9.80413 
437 1 3.04856 13.0249 20.1217 -8.62155 29.6498 -2.40604 
459 1 6.0847 12.4155 18.5858 10.736 -7.85612 -3.94231 
462 1 2.87798 12.1547 23.596 70.5347 -73.8027 1.04171 
478 1 3.03642 15.9371 23.283 -8.54295 -6.81205 -12.6455 
511 1 1.81772 13.9823 23.7769 -56.1596 72.4365 15.1027 
522 1 5.83526 15.934 19.234 -10.091 -0.496205 14.7804 
591 1 1.82782 15.4046 17.5292 7.58384 18.5801 -0.472261 
675 1 1.07668 14.4719 21.6817 -9.65136 -4.16092 3.95121 
700 1 3.38486 15.3962 19.4718 -0.989035 -15.9229 2.72311 
747 1 6.79931 13.9848 20.325 -31.526 -9.58322 -4.94445 
801 1 0.597151 17.9202 21.1845 0.1847 8.19873 6.39902 
960 1 6.14479 13.5018 22.6243 -0.130089 17.2356 -27.3409 
986 1 5.27791 15.5604 23.4859 -1.31247 -12.3206 17.0884 
1043 1 5.81057 15.7551 16.8915 -3.52501 -30.6414 1.37831 
1163 1 3.18606 19.5722 23.2306 93.6566 156.001 -69.2401 
1190 1 1.74608 13.4377 16.6878 -18.5424 7.90904 21.1743 
1332 1 5.02282 17.5601 20.7331 13.2651 -1.07686 11.9715 
1334 1 2.49083 16.4102 21.2009 21.1412 7.08798 -26.6783 
1354 1 5.4543 13.6315 16.671 8.39298 34.8164 -6.01406 
1366 1 6.20885 17.5509 22.5243 -18.9719 5.24699 -19.7193 
1411 1 5.35198 19.7381 19.8202 -4.71067 8.04716 -34.7257 
1491 1 5.55087 19.5538 23.7612 1.86409 17.3098 5.89073 
362 1 6.16501 11.443 24.1061 24.1282 0.779467 -31.6909 
1006 1 2.98811 20.2242 16.9355 13.6762 6.49839 29.7569 
898 1 4.82855 19.4627 16.1032 -6.82849 3.11569 11.6474 
86 1 13.675 12.5027 22.2794 -12.4433 3.87424 12.6464 
210 1 8.06866 15.9944 16.2298 23.9748 -12.9168 -16.9182 
248 1 14.7211 16.8135 17.4027 13.3709 -2.56461 28.2203 
108 1 10.1521 11.9896 20.3919 -1.31854 0.339796 15.7435 
324 1 8.92308 14.052 20.5026 26.2162 -2.45165 -13.0367 
232 1 7.99805 16.8928 18.4054 0.989981 -27.5299 22.3384 
391 1 8.47702 19.1321 17.99 8.62569 -4.34019 23.9876 
382 1 9.86137 14.7767 16.3127 -16.5323 20.3723 -19.6897 
877 1 14.823 13.6417 23.9926 -18.6609 -8.4969 12.8469 
482 1 14.14 14.0042 20.0811 -25.1894 -10.4349 -23.6551 
759 1 14.9555 10.4574 22.4617 39.1573 -10.9081 42.2347 
1544 2 8.75752 11.3078 22.741 -2.82026 -7.24703 2.19264 
256 1 11.4514 11.6855 22.4275 -2.70699 32.3351 1.74087 
1443 1 14.3112 17.2627 21.8597 -30.773 38.0285 -23.1905 
1017 1 12.1278 19.2822 19.4262 31.4311 -22.884 23.9328 
1447 1 11.2614 15.5811 18.0987 -2.38621 -1.811 -2.30173 
1130 1 10.4686 16.9285 21.7418 18.4427 34.3709 -22.6357 
1229 1 8.29763 10.6595 20.0684 -14.2215 -7.30393 7.57312 
1157 1 9.86701 13.5612 22.6089 5.54408 -2.07532 -3.93767 
1460 1 9.959 20.2049 19.6114 -37.0582 -10.4161 16.4764 
764 1 8.56186 18.1423 22.4632 -1.41321 9.69487 8.89897 
1493 1 13.4935 15.0121 22.2024 -4.44123 -13.4636 -5.36582 
17 1 8.93785 20.1448 21.5249 -10.8886 23.8235 -13.0653 
1368 1 7.77575 11.1865 17.9357 4.276 18.0854 -10.8649 
79 1 11.246 12.0379 18.3187 -1.39886 21.0271 -19.8259 
1434 1 9.52017 12.4738 16.6132 -14.6951 -23.6756 22.9014 
1286 1 12.4796 17.5837 17.7849 -12.9168 1.13196 -10.1801 
1264 1 12.6572 13.6632 18.1417 5.33861 -14.0503 25.9334 
1530 1 12.5064 18.2841 21.3708 6.05587 -21.161 0.581993 
1362 1 9.83231 15.8942 19.688 -27.366 10.9989 -17.9982 
43 1 13.8284 19.3988 23.1992 6.14378 23.7536 -10.8262 
1469 1 11.2552 15.3621 22.9802 16.6539 -13.2479 29.5513 
1104 1 15.1812 11.7867 20.421 7.4561 -11.5421 -15.5533 
1253 1 15.2636 15.8506 23.6784 22.9514 9.1735 7.00213 
30 1 2.28316 15.0864 29.4881 1.24877 14.2621 7.46465 
94 1 2.21693 17.9992 24.2775 -84.0599 -159.093 108.687 
95 1 2.29007 13.6352 31.5206 0.165121 10.25 -4.7333 
164 1 5.10005 17.3464 26.7761 35.7913 13.8976 19.7082 
413 1 4.59712 13.2917 26.8867 40.0969 24.4664 -26.1507 
439 1 6.42503 19.1092 25.6774 -39.8386 -11.1919 -16.3122 
464 1 6.11239 12.8872 30.5273 -31.5718 -39.5361 -30.127 
496 1 2.74551 19.9088 28.0124 31.5455 3.60325 -7.95689 
566 1 2.68252 13.3077 28.3248 31.2919 7.00578 -7.88896 
582 1 4.18833 11.7636 29.3775 -7.08322 -38.9413 -11.9545 
704 1 5.60891 15.3322 25.7342 3.89545 -27.1716 16.2549 
785 1 3.90682 16.3987 30.2941 36.7335 4.61239 -30.5544 
820 1 5.70417 17.3322 28.8757 -44.9363 -22.6597 3.88191 
823 1 7.49676 10.8242 27.4594 -13.9366 -34.6577 5.81614 
946 1 3.35999 20.0165 30.3972 14.0187 16.4059 -22.528 
1070 1 1.58597 16.2501 27.3483 20.9383 13.1834 6.6552 
1173 1 4.34272 11.7078 25.4554 -15.8057 4.62952 -9.30151 
1186 1 0.416954 17.5934 31.0819 -4.92641 -10.0448 -4.02618 
1232 1 6.56269 12.725 28.2274 19.2627 -6.0939 -20.3708 
1263 1 0.880728 12.646 27.3701 -53.4655 -2.84199 14.8235 
1309 1 5.77411 19.8553 31.8597 2.3475 25.3384 -25.7165 
1346 1 6.08511 14.9784 30.8118 -1.297 82.8483 10.9014 
1376 1 3.71157 11.732 31.4656 3.33981 -0.429663 4.40317 
1388 1 5.89412 19.5413 29.7291 8.68185 7.68953 8.18665 
1391 1 0.938789 10.3487 26.8318 8.8459 7.82419 -14.3965 
1453 1 2.77678 17.8774 26.6616 -4.33537 -8.50987 12.1958 
1454 1 2.72107 18.2026 31.3271 -13.8926 -37.3646 26.2644 
818 1 0.242085 13.0034 31.5402 -42.8083 -0.977028 -12.1119 
811 1 0.0551146 10.6247 31.9816 10.6128 -2.49828 9.05481 
68 1 7.32516 11.581 31.7681 16.9619 17.7056 23.7964 
1003 1 0.0821129 13.7419 25.3904 -7.03155 -0.652466 7.04752 
1394 1 8.41431 16.1356 31.4313 -16.0114 -10.5894 40.0833 
292 1 7.64997 16.1775 29.2348 -16.2144 -32.5876 -7.52416 
1304 1 10.2764 12.3456 24.548 5.20056 -16.8717 30.8545 
1448 1 12.9363 18.7131 30.8263 -14.9316 41.7728 7.98972 
1534 1 8.16182 14.2122 27.9154 -17.4737 -1.03925 4.06415 
16 1 13.8553 13.3196 26.1313 -5.2653 -23.3399 -17.6514 
1555 2 12.7284 11.265 24.4551 7.10609 0.54902 6.51829 
37 1 12.8959 17.946 28.5462 39.2585 22.3498 -25.1004 
49 1 15.0717 16.5226 25.9043 2.40061 21.5996 3.22951 
65 1 11.5048 13.7048 26.1647 -7.5981 -36.1722 -8.86696 
82 1 14.3441 10.4978 31.1913 20.3515 13.2118 23.698 
90 1 13.9905 15.2346 29.3817 -28.2354 -21.1244 6.49828 
229 1 12.9189 17.288 26.195 -10.5814 13.7345 -13.936 
295 1 10.693 11.1708 31.5527 36.4652 13.8084 25.7995 
417 1 10.2324 14.6982 31.7152 6.8366 6.85128 -21.0388 
583 1 8.48237 19.5915 28.6202 -37.3888 17.4315 16.8038 
581 1 10.7845 11.3528 29.1135 -3.22796 6.23166 11.3212 
652 1 11.2359 15.6919 25.406 7.25429 57.7978 -22.3925 
964 1 14.8753 14.0002 30.9967 -10.1668 13.3044 -9.74883 
979 1 12.4931 19.1048 25.12 -26.4104 -6.81419 9.14955 
981 1 8.21277 10.9289 25.1704 13.41 15.7263 5.19432 
992 1 11.4898 14.9113 29.6329 7.04811 -20.6682 -14.2314 
1067 1 11.0545 17.4891 31.7681 3.80524 -15.58 22.9998 
1051 1 8.55259 18.4767 24.8412 27.398 -30.5462 0.624761 
1084 1 9.08875 17.5626 28.3022 40.6147 -17.9236 -49.1758 
920 1 14.3422 11.0996 26.9174 13.877 29.5897 7.92482 
1095 1 9.12774 16.7092 25.9524 2.84933 34.6287 17.9504 
1046 1 14.7129 17.3228 30.077 17.8958 13.4494 -0.386842 
1102 1 15.0181 14.7834 27.2344 0.136924 -7.69141 32.5777 
1134 1 12.9161 19.995 27.2329 -4.5795 -3.097 30.2707 
1295 1 8.07343 19.8695 30.9993 12.8478 18.5658 1.61737 
1198 1 11.1665 17.1028 29.4057 -62.5621 -25.8525 3.42381 
1141 1 10.2167 20.1484 25.07 21.5997 -30.9114 -10.8019 
658 1 7.75883 14.8733 25.8053 -26.926 7.19267 15.7039 
1319 1 10.4928 13.5399 28.271 -0.483946 24.7017 10.9031 
1242 1 8.07662 13.2272 24.1608 -19.622 -18.6186 0.424108 
5 1 6.23068 21.3627 6.42889 -27.6245 -9.51011 -1.09147 
29 1 4.79679 27.3085 1.48479 -5.61979 -7.8614 -2.55498 
156 1 2.4708 29.899 2.65464 -37.0842 49.9498 0.115994 
199 1 3.85607 23.3777 4.45061 -6.43116 15.7552 -6.09547 
309 1 4.3899 30.0995 6.13601 -8.98233 -21.4203 -20.3173 
368 1 4.25889 22.2578 6.54158 6.54392 12.726 6.25969 