LAMMPS (7 Aug 2019)
OMP_NUM_THREADS environment is not set. Defaulting to 1 thread. (src/comm.cpp:93)
  using 1 OpenMP thread(s) per MPI task
# GCMC parent script

include		control_gc
# User Inputs

variable	iEnsmble equal 	0		#0:GCMC NVT, 1:GCMC NPT, 2:MC NVT, 3:NPT
variable	nmciter equal 	1000000		#No. of GCMC iterations
variable	EmMD equal	1		#0:control_emin, 1:control_md (Emin/MD for every GCMC iter)
variable	MDstp1 equal	200		#MD steps (for every GCMC iter) if control_md selected
variable	readfile equal	0		#Type of the input geo file. 0:data.in, 1:infile

variable	iMD equal	1		#1:Perform MD run every iMDfreq GCMC iter
variable	iMDfreq equal	5		#GCMC iter if iMD=1
variable	MDstp2 equal	200		#MD steps (for iMDfreq MD) if iMD=1
variable	initMD equal	1		#1:Run (longer) MD on first geometry (for EmMD=1,MD)
variable	MDstp3 equal	10000		#MD steps (for 1st long MD) if initMD=1

variable	Temp equal 	300		#Temp for MD, GCMC prob
variable	Pressure equal 	0.0		#For GCMC NPT
variable	vfactIn equal 	0.01		#Max change in length during NPT
variable	volAvoid equal	0		#Vol of sim box - Vol (Li) used for GCMC

variable	ifix1 equal 	0		#first atom-id in the range of fixed atoms
variable	ifix2 equal 	0		#last atom-id in the range of fixed atoms
variable	inonMC equal	1536		#last id of nonMC atom (not part of any GCMC move)
variable	iMC equal	1536		#last id of MC atoms (just displacable)(should be at the end of data.in file)(inonMC=iMC, if no MC atom)

variable	Rmax equal 	3.0		#Farthest new atom can be (from typeNear* if iNear*=1, otherwise any atom) 	(default-criteria1)
variable	Rmin equal 	2.0		#Closest new atom can be (to typeNear* if iNear*=1, otherwise any atom) 	(default-criteria2)
variable	typeGC equal	2		#Atom type of GCMC atom
variable	mass equal	6.941		#Mass of GCMC atom
variable	mu equal	-57.93		#Chemical potential of GCMC atom
variable	iSiDist equal	0		#1:To apply distance criteria from Si for new atom placement, 0:otherwise 	(addon-criteria1)
variable	iNear1 equal	1		#1:To restrict placement of typeGC atoms near typeNear1 atoms (near Si) 	(addon-criteria2.1)
variable	typeNear1 equal	1		#Type of atom1 near which typeGC atoms are placed (Si)
variable	iNear2 equal	0		#1:To restrict placement of typeGC atoms near typeNear1 or typeNear2 atoms (near Si or Li) 	(addon-criteria2.2)
variable	typeNear2 equal	2		#Type of atom2 near which typeGC atoms are placed (Li)
variable	iparticle equal	0		#1:To place typeGC in a particle of typeNear (iNear must be 1), 0:otherwise (Change r_atoms and r_factor in getcoords.py) (addon-criteria3) (only for particle geometry)
variable	far_atoms equal	75		#farthest atoms used to calculate r of particle (only for particle geometry)
variable	far_rfact equal	0.9025		#multiplication factor to r to get r for placing in particle (only for particle geometry)



#Initialize
print           "Seed: ${seed}"
Seed: 17570
variable	rn_01 equal	random(0,1,${seed})
variable	rn_01 equal	random(0,1,17570)
variable	beta equal	1/(0.0019872041*${Temp})
variable	beta equal	1/(0.0019872041*300)
variable	lambda equal	sqrt(1/(${mass}*${Temp}))*17.45822066
variable	lambda equal	sqrt(1/(6.941*${Temp}))*17.45822066
variable	lambda equal	sqrt(1/(6.941*300))*17.45822066
variable	therm_vel equal	sqrt(${Temp}/${mass})*0.001579347326
variable	therm_vel equal	sqrt(300/${mass})*0.001579347326
variable	therm_vel equal	sqrt(300/6.941)*0.001579347326
print		"beta: ${beta}; lambda:${lambda}; therm_vel:${therm_vel}"
beta: 1.67739857890457; lambda:0.382585343708812; therm_vel:0.0103831052085002
shell		rm dump.last dump.reax bonds.last bonds.out ener_comp  Thermo dump.strs.last dump.strs MClog status.log
print		"imc  pass  n_system  E_system  vol_system  vol_GC  pr_system  prob1  prob2" append MClog
imc  pass  n_system  E_system  vol_system  vol_GC  pr_system  prob1  prob2
print 		"1imc  2nGCMC  3Pe  4eb  5ea  6elp  7emol  8ev  9epen  10ecoa  11ehb  12et  13eco  14ew  15ep  16efi  17eqeq" file ener_comp
1imc  2nGCMC  3Pe  4eb  5ea  6elp  7emol  8ev  9epen  10ecoa  11ehb  12et  13eco  14ew  15ep  16efi  17eqeq
print 		"1imc  2nGCMC  3Pe  4Ke  5Te  6V  7Tmp  8P  9Px  10Py  11Pz  12Lx  13Ly  14Lz  15Dens" file Thermo
1imc  2nGCMC  3Pe  4Ke  5Te  6V  7Tmp  8P  9Px  10Py  11Pz  12Lx  13Ly  14Lz  15Dens

units           real
atom_style      charge
atom_modify	map yes
if		"${readfile} == 0" then "read_data data.in" else "read_restart infile"
read_data data.in
  orthogonal box = (0 0 0) to (30.5776 30.5776 32.1891)
  2 by 3 by 4 MPI processor grid
  reading atoms ...
  1536 atoms
  read_data CPU = 0.0034461 secs
group		freezeatoms id ${ifix1}:${ifix2}
group		freezeatoms id 0:${ifix2}
group		freezeatoms id 0:0
0 atoms in group freezeatoms



# Variables for minimization
variable        etol equal 	1.0e-10
variable        ftol equal 	1.0e-10
variable        maxiter equal 	500000
variable        maxeval equal 	100000
variable        dmax equal 	1.0e-1



#First reax run
variable	n_trial equal 	count(all)
variable	E_trial equal 	pe
variable	vol_trial equal vol
variable	pr_trial equal press
variable	imc equal 0

if		"${initMD}==1" then 		"variable	MDstp equal	${MDstp3}" else		"variable	MDstp equal	${MDstp1}"
variable	MDstp equal	${MDstp3}
variable	MDstp equal	10000
if		"(${initMD}==1) && (${MDstp3}<1000)" then 		"variable	MDdmp equal	${MDstp3}" else		"variable	MDdmp equal	1000"
variable	MDdmp equal	1000
if		"${EmMD}==0" then "variable	filename string control_emin" else "variable	filename string control_md"
variable	filename string control_md

include 	${filename}
include 	control_md
# Control file for running ReaxFF MD on a geometry

#Force field: Define all GCMC species (including the ones not in geometry file) in the order they appear in datafile
pair_style	reax/c lmp_control safezone 1.6 mincap 100
pair_coeff	* * ffield Si Li
WARNING: VdWaals-parameters for element LI indicate inner wall+shielding, but earlier atoms indicate different vdWaals-method. This may cause division-by-zero errors. Keeping vdWaals-setting for earlier atoms. (src/USER-REAXC/reaxc_ffield.cpp:259)
WARNING: Changed valency_val to valency_boc for X (src/USER-REAXC/reaxc_ffield.cpp:315)

#Neighbor list
neighbor	2.5 bin
neigh_modify	delay 0 every 1 check yes

#Property computes
compute virial all stress/atom NULL
compute e all pair reax/c
variable eb equal c_e[1]
variable ea equal c_e[2]
variable elp equal c_e[3]
variable emol equal c_e[4]
variable ev equal c_e[5]
variable epen equal c_e[6]
variable ecoa equal c_e[7]
variable ehb equal c_e[8]
variable et equal c_e[9]
variable eco equal c_e[10]
variable ew equal c_e[11]
variable ep equal c_e[12]
variable efi equal c_e[13]
variable eqeq equal c_e[14]
variable stp equal "step"
variable Pe equal "pe"

variable Ke equal "ke"
variable Te equal "etotal"
variable V equal "vol"
variable Tmp equal "temp"
variable P equal "press"
variable Px equal "pxx"
variable Py equal "pyy"
variable Pz equal "pzz"
variable Lx equal "lx"
variable Ly equal "ly"
variable Lz equal "lz"
variable Dens equal "density"

# Energy Minimization and equilibration
fix             1 all qeq/reax 1 0.0 10.0 1.0e-6 reax/c
fix		2 all nvt temp ${Temp} ${Temp} 100.0
fix		2 all nvt temp 300 ${Temp} 100.0
fix		2 all nvt temp 300 300 100.0
fix		freeze freezeatoms setforce 0 0 0
fix		5 all reax/c/bonds ${MDdmp} bonds.last
fix		5 all reax/c/bonds 1000 bonds.last


thermo		${MDdmp}
thermo		1000
thermo_style	custom step time pe ke etotal vol temp press pxx pyy pzz lx ly lz density c_e[1]
timestep	0.25

dump		1 all custom ${MDdmp} dump.last id type x y z fx fy fz
dump		1 all custom 1000 dump.last id type x y z fx fy fz
dump            2 all custom ${MDdmp} dump.strs.last c_virial[1] c_virial[2] c_virial[3] c_virial[4] c_virial[5] c_virial[6]
dump            2 all custom 1000 dump.strs.last c_virial[1] c_virial[2] c_virial[3] c_virial[4] c_virial[5] c_virial[6]

run		${MDstp}
run		10000
Neighbor list info ...
  update every 1 steps, delay 0 steps, check yes
  max neighbors/atom: 2000, page size: 100000
  master list distance cutoff = 12.5
  ghost atom cutoff = 12.5
  binsize = 6.25, bins = 5 5 6
  2 neighbor lists, perpetual/occasional/extra = 2 0 0
  (1) pair reax/c, perpetual
      attributes: half, newton off, ghost
      pair build: half/bin/newtoff/ghost
      stencil: half/ghost/bin/3d/newtoff
      bin: standard
  (2) fix qeq/reax, perpetual, copy from (1)
      attributes: half, newton off, ghost
      pair build: copy
      stencil: none
      bin: none
Per MPI rank memory allocation (min/avg/max) = 72 | 72.37 | 72.69 Mbytes
Step Time PotEng KinEng TotEng Volume Temp Press Pxx Pyy Pzz Lx Ly Lz Density c_e[1] 
       0            0   -155856.71            0   -155856.71    30096.474            0   -2093.1735    718.88686   -3780.1588   -3218.2487      30.5776      30.5776      32.1891    2.3780026   -221353.06 
    1000          250   -156344.67    937.80167   -155406.87    30096.474    204.95963    7014.8206    10319.647    3163.1283    7561.6866      30.5776      30.5776      32.1891    2.3780026   -221587.64 
    2000          500   -156005.23    1218.6712   -154786.56    30096.474    266.34458    1159.3569    833.47511    829.59323    1815.0025      30.5776      30.5776      32.1891    2.3780026   -221276.95 
    3000          750   -155762.59    1409.2044   -154353.39    30096.474    307.98624    1894.8443    4763.6985    1996.8738   -1076.0395      30.5776      30.5776      32.1891    2.3780026   -221442.68 
    4000         1000   -155839.16    1326.7384   -154512.42    30096.474    289.96302    -990.0286    4707.0288    -3254.596   -4422.5186      30.5776      30.5776      32.1891    2.3780026   -221258.39 
    5000         1250   -155854.26     1356.879   -154497.38    30096.474    296.55035    3206.3101     5834.462    1075.7489    2708.7196      30.5776      30.5776      32.1891    2.3780026   -221257.91 
    6000         1500   -155827.25    1431.9455    -154395.3    30096.474    312.95637    2370.6878    5363.0719     2375.865   -626.87358      30.5776      30.5776      32.1891    2.3780026   -221438.77 
    7000         1750   -155904.49    1344.4337   -154560.06    30096.474    293.83039    1996.5871    5062.9223    467.09049    459.74842      30.5776      30.5776      32.1891    2.3780026   -221095.77 
    8000         2000   -155843.67    1397.1916   -154446.48    30096.474    305.36079    2645.7003    6425.4234   -763.26086    2274.9385      30.5776      30.5776      32.1891    2.3780026   -221282.85 
    9000         2250   -155816.79    1388.5314   -154428.26    30096.474    303.46808    1072.7394    1561.7229    2633.3717   -976.87638      30.5776      30.5776      32.1891    2.3780026   -221481.42 
   10000         2500   -155887.23    1348.4464   -154538.78    30096.474    294.70738   -593.18963    2358.0725   -2838.0547   -1299.5866      30.5776      30.5776      32.1891    2.3780026   -221348.39 
Loop time of 128.382 on 24 procs for 10000 steps with 1536 atoms

Performance: 1.682 ns/day, 14.265 hours/ns, 77.893 timesteps/s
98.9% CPU use with 24 MPI tasks x 1 OpenMP threads

MPI task timing breakdown:
Section |  min time  |  avg time  |  max time  |%varavg| %total
---------------------------------------------------------------
Pair    | 110.03     | 112.99     | 114.91     |  10.8 | 88.01
Neigh   | 0          | 0          | 0          |   0.0 |  0.00
Comm    | 0.87848    | 2.8066     | 5.7606     |  68.6 |  2.19
Output  | 0.011778   | 0.046129   | 0.047641   |   3.3 |  0.04
Modify  | 12.433     | 12.452     | 12.496     |   0.3 |  9.70
Other   |            | 0.0841     |            |       |  0.07

Nlocal:    64 ave 70 max 47 min
Histogram: 1 0 0 1 1 2 4 2 8 5
Nghost:    2346.58 ave 2373 max 2323 min
Histogram: 1 0 2 6 6 4 1 2 1 1
Neighs:    24825.8 ave 27427 max 17623 min
Histogram: 1 0 0 2 0 1 5 3 6 6

Total # of neighbors = 595818
Ave neighs/atom = 387.902
Neighbor list builds = 0
Dangerous builds = 0

#fix		2 all nvt temp ${Temp} 0.01 100.0       #To be run when control_emin is used
#run		${MDstp}				#To be run when control_emin is used
#
#fix		2 all nvt temp 0.01 0.01 100.0		#To be run when control_emin is used
#run		${MDstp}				#To be run when control_emin is used

if		"(${MDdmp}!=1000) && (${imc}!=0)" then 		"shell echo dump.last | get_last" 		"shell echo dump.strs.last | get_last" 		"shell echo bonds.last | get_last"

undump		1
undump		2

variable	MDstp equal	${MDstp1}
variable	MDstp equal	200
variable	MDdmp equal	${MDstp1}
variable	MDdmp equal	200

variable	n_system equal	${n_trial}
variable	n_system equal	1536
variable	E_system equal 	${E_trial}
variable	E_system equal 	-155887.229868508
variable	vol_system equal ${vol_trial}
variable	vol_system equal 30096.4744337948
variable	vol_GC equal	(vol-${volAvoid})			#Volume available to GCMC atoms (to be used in prob. calculation)
variable	vol_GC equal	(vol-0)			
variable	pr_system equal ${pr_trial}
variable	pr_system equal -593.18962829983
variable	n_MC equal	v_n_system-v_inonMC		#displacable atoms
variable	n_GCMC equal	v_n_system-v_iMC		#deletable atoms
variable	flgCoord equal	0
print 		"${imc}  ${n_GCMC}  ${Pe}  ${eb}  ${ea}  ${elp}  ${emol}  ${ev}  ${epen}  ${ecoa}  ${ehb}  ${et}  ${eco}  ${ew}  ${ep}  ${efi}  ${eqeq}" append ener_comp
0  0  -155887.229868508  -221348.391993746  -5579.93685670298  0  0  21492.6551321668  0  0  0  0  0  49548.4438497499  -1.17253986750256e-08  0  3.63797241973688e-08
print 		"${imc}  ${n_GCMC}  ${Pe}  ${Ke}  ${Te}  ${V}  ${Tmp}  ${P}  ${Px}  ${Py}  ${Pz}  ${Lx}  ${Ly}  ${Lz}  ${Dens}" append Thermo
0  0  -155887.229868508  1348.44642047836  -154538.78344803  30096.4744337948  294.707381115637  -593.18962829983  2358.07245777923  -2838.05474625492  -1299.5865964238  30.5776  30.5776  32.1891  2.37800255774645
variable	imc delete
shell		cat dump.last >> dump.reax
shell		cat bonds.last >> bonds.out
shell		cat dump.strs.last >> dump.strs
print		"First run  ${n_system}  ${E_system}  ${vol_system}  ${vol_GC}  ${pr_system}" append status.log
First run  1536  -155887.229868508  30096.4744337948  30096.4744337948  -593.18962829983
print		"--------------------------------------------------------------------------------------" append status.log
--------------------------------------------------------------------------------------
print		"imc  pass  n_system  E_system  E_trial  vol_system  vol_GC  pr_system  prob_MC  iMCflag  n_MC  n_GCMC  iblock  prob1  prob2  atomid  status" append status.log
imc  pass  n_system  E_system  E_trial  vol_system  vol_GC  pr_system  prob_MC  iMCflag  n_MC  n_GCMC  iblock  prob1  prob2  atomid  status
write_restart	refile



#Ensemble pick
if		"${iEnsmble}==0" then "variable iMCpick equal 3"
variable iMCpick equal 3
if		"${iEnsmble}==1" then "variable iMCpick equal 4"
if		"${iEnsmble}==2" then "variable iMCpick equal 1"
if		"${iEnsmble}==3" then "variable iMCflag equal 3"



#GCMC loop
variable	imc loop 	0 ${nmciter}
variable	imc loop 	0 1000000
variable	pass loop 	0 ${nmciter}
variable	pass loop 	0 1000000
variable	MDcheck equal 	"v_imc%v_iMDfreq"
label		imcloop
if		"${imc} >= ${nmciter}" then "print 'End of loop'" 	"quit"
next		imc
print		"imc, pass: ${imc}, ${pass}"
imc, pass: 1, 0
variable	prob_MC equal	${rn_01}
variable	prob_MC equal	0.0270690321922302
if		"${iEnsmble}!=3" then "variable iMCflag equal floor(${iMCpick}*${prob_MC})"
variable iMCflag equal floor(${iMCpick}*${prob_MC})
variable iMCflag equal floor(3*${prob_MC})
variable iMCflag equal floor(3*0.0270690321922302)
print 		"prob_MC, iMCflag: ${prob_MC}, ${iMCflag}"
prob_MC, iMCflag: 0.0270690321922302, 0
print 		"n_MC:${n_MC}; n_GCMC:${n_GCMC}"
n_MC:0; n_GCMC:0
variable	iblock equal	0
variable	prob1 equal	0
variable	prob2 equal	0
variable	rx string	0
variable	ry string	0
variable	rz string	0
variable	flgCoord delete
variable	flgCoord equal	0
print 		"iblock:${iblock}"
iblock:0
#run		0 pre no post no
#print		"${imc}  ${pass}  ${n_system}  ${E_system}  ${E_trial}  ${vol_system}  ${vol_GC}  ${pr_system}  ${prob_MC}  ${iMCflag}  ${n_MC}  ${n_GCMC}  ${iblock}  ${prob1}  ${prob2}  loop head" append status.log



#Displace atom block
if 		"(${iMCflag} == 0) && (${n_MC}>0)" then 		"print 		'in displace block'" 		"variable	iblock equal 1" 		"variable	nMCmoved equal	floor(${inonMC}+${rn_01}*${n_MC})+1" 		"print 		'nMCmoved is ${nMCmoved}'" 		"clear" 		"read_restart	refile" 		"group		disp id ${nMCmoved}" 		"variable	flgCoord delete" 		"variable	flgCoord python	getRandCoords" 		"python		getRandCoords input 5 1 ${nMCmoved} ${Rmin} ${Rmax} SELF return v_flgCoord format iiffpi file getcoord.py" 		"python		getRandCoords invoke"

if 		"(${iblock}==1) && (${flgCoord}==1)" 	then 		"displace_atoms	disp move ${rx} ${ry} ${rz} units box" 		"group		disp delete" 		"jump		SELF run_control" elif		"${iblock}==1" 		"print		'${imc}  ${pass}  ${n_system}  ${E_system}  ${E_system}  ${vol_system}  ${vol_GC}  ${pr_system}  ${prob_MC}  ${iMCflag}  ${n_MC}  ${n_GCMC}  ${iblock}  ${prob1}  ${prob2}  add fail getrandCoords' append status.log" 		"variable	iblock equal 0" 		"variable	prob1 equal 0" 		"variable	prob2 equal 0" 		"jump		SELF MDfreqrun"

label		iblock1
print		"iblock:${iblock}"
iblock:0
if 		"${iblock}==1" 	then 		"variable	prob1 equal	exp(-${beta}*(${E_trial}-${E_system}))" 		"variable	prob2 equal	${rn_01}" 		"print 		'beta:${beta}; E_trail:${E_trial}; E_system:${E_system};prob1:${prob1}; prob2:${prob2}'"

print		"iblock:${iblock}"
iblock:0
if 		"(${iblock}==1) && (${prob1}>${prob2})" then 		"variable	n_system equal ${n_trial}" 		"variable	E_system equal ${E_trial}" 		"variable	vol_system equal ${vol_trial}" 		"variable	pr_system equal ${pr_trial}" 		"print 		'${imc}  ${n_GCMC}  ${Pe}  ${eb}  ${ea}  ${elp}  ${emol}  ${ev}  ${epen}  ${ecoa}  ${ehb}  ${et}  ${eco}  ${ew}  ${ep}  ${efi}  ${eqeq}' append ener_comp" 		"print 		'${imc}  ${n_GCMC}  ${Pe}  ${Ke}  ${Te}  ${V}  ${Tmp}  ${P}  ${Px}  ${Py}  ${Pz}  ${Lx}  ${Ly}  ${Lz}  ${Dens}' append Thermo" 		"shell		cat dump.last >> dump.reax" 		"shell		cat bonds.last >> bonds.out" 		"shell		cat dump.strs.last >> dump.strs" 		"next		pass" 		"print		'${imc}  ${pass}  ${n_system}  ${E_system}  ${E_trial}  ${vol_system}  ${vol_GC}  ${pr_system}  ${prob_MC}  ${iMCflag}  ${n_MC}  ${n_GCMC}  ${iblock}  ${prob1}  ${prob2}  displace pass  ${nMCmoved}  ${rx}  ${ry}  ${rz}' append status.log" 		"print 		'PE is ${E_system}, total atoms are ${n_system}'" 		"print 		'${imc}  ${pass}  ${n_system}  ${E_system}  ${vol_system}  ${vol_GC}  ${pr_system}  ${prob1}  ${prob2}' append MClog" 		"write_restart	refile" 		"variable	iblock equal 0" 		"variable	prob1 equal 0" 		"variable	prob2 equal 0" 		"jump		SELF MDfreqrun" elif 		"(${iblock}==1)" 		"print		'${imc}  ${pass}  ${n_system}  ${E_system}  ${E_trial}  ${vol_system}  ${vol_GC}  ${pr_system}  ${prob_MC}  ${iMCflag}  ${n_MC}  ${n_GCMC}  ${iblock}  ${prob1}  ${prob2}  displace fail  ${nMCmoved}  ${rx}  ${ry}  ${rz}' append status.log" 		"variable	iblock equal 0" 		"variable	prob1 equal 0" 		"variable	prob2 equal 0" 		"jump		SELF MDfreqrun"



#Delete atom block
print 		"iMCflag at delete block: ${iMCflag}"
iMCflag at delete block: 0
if 		"(${iMCflag} == 1) && (${n_GCMC}>0)" then 		"print 		'in delete block'" 		"variable	iblock equal 2" 		"variable	nGCdeleted equal floor(${iMC}+${rn_01}*${n_GCMC})+1" 		"print 		'nGCdeleted trying on ${nGCdeleted}'" 		"variable	lastatom equal ${n_system}" 		"clear" 		"read_restart	refile" 		"variable	lastx equal x[${lastatom}]" 		"variable	lasty equal y[${lastatom}]" 		"variable	lastz equal z[${lastatom}]" 		"variable	lastvx equal vx[${lastatom}]" 		"variable	lastvy equal vy[${lastatom}]" 		"variable	lastvz equal vz[${lastatom}]" 		"variable	lasttyp equal type[${lastatom}]" 		"variable	tx equal ${lastx}" 		"variable	ty equal ${lasty}" 		"variable	tz equal ${lastz}" 		"variable	tvx equal ${lastvx}" 		"variable	tvy equal ${lastvy}" 		"variable	tvz equal ${lastvz}" 		"variable	ttyp equal ${lasttyp}" 		"variable	delx equal x[${nGCdeleted}]" 		"variable	dely equal y[${nGCdeleted}]" 		"variable	delz equal z[${nGCdeleted}]" 		"variable	dx equal (${tx}-${delx})" 		"variable	dy equal (${ty}-${dely})" 		"variable	dz equal (${tz}-${delz})" 		"print		'Del atom, coords: ${nGCdeleted} ${delx} ${dely} ${delz}; Last coords: ${tx} ${ty} ${tz}'" 		"print		'Last vels: ${tvx} ${tvy} ${tvz} Last type: ${ttyp}'" 		"group		del id ${lastatom}" 		"delete_atoms	group del compress no" 		"group		del delete" 		"group		delDisp id ${nGCdeleted}" 		"displace_atoms	delDisp move ${dx} ${dy} ${dz}" 		"group		delDisp delete" 		"set		atom ${nGCdeleted} vx ${tvx} vy ${tvy} vz ${tvz}" 		"set		atom ${nGCdeleted} type ${ttyp}" 		"jump		SELF run_control"

label		iblock2
print 		"iblock:${iblock}"
iblock:0
if 		"${iblock}==2" 	then 		"variable	prob1 equal	(${n_system}*(${lambda}^3)/${vol_GC})*exp(-${beta}*(${E_trial}-${E_system}+${mu}))" 		"variable	prob2 equal	${rn_01}" 		"print 		'beta:${beta}; E_trail:${E_trial}; E_system:${E_system};prob1:${prob1}; prob2:${prob2}'"

print 		"iblock:${iblock}"
iblock:0
if 		"(${iblock}==2) && (${prob1}>${prob2})" then 		"variable	n_system equal ${n_trial}" 		"variable	E_system equal ${E_trial}" 		"variable	vol_system equal ${vol_trial}" 		"variable	pr_system equal ${pr_trial}" 		"print 		'${imc}  ${n_GCMC}  ${Pe}  ${eb}  ${ea}  ${elp}  ${emol}  ${ev}  ${epen}  ${ecoa}  ${ehb}  ${et}  ${eco}  ${ew}  ${ep}  ${efi}  ${eqeq}' append ener_comp" 		"print 		'${imc}  ${n_GCMC}  ${Pe}  ${Ke}  ${Te}  ${V}  ${Tmp}  ${P}  ${Px}  ${Py}  ${Pz}  ${Lx}  ${Ly}  ${Lz}  ${Dens}' append Thermo" 		"shell		cat dump.last >> dump.reax" 		"shell		cat bonds.last >> bonds.out" 		"shell		cat dump.strs.last >> dump.strs" 		"next		pass" 		"print		'${imc}  ${pass}  ${n_system}  ${E_system}  ${E_trial}  ${vol_system}  ${vol_GC}  ${pr_system}  ${prob_MC}  ${iMCflag}  ${n_MC}  ${n_GCMC}  ${iblock}  ${prob1}  ${prob2}  delete  pass  ${nGCdeleted}' append status.log" 		"print 		'PE is ${E_system}, total atoms are ${n_system}'" 		"print 		'${imc}  ${pass}  ${n_system}  ${E_system}  ${vol_system}  ${vol_GC}  ${pr_system}  ${prob1}  ${prob2}' append MClog" 		"write_restart	refile" 		"variable	iblock equal 0" 		"variable	prob1 equal 0" 		"variable	prob2 equal 0" 		"jump		SELF MDfreqrun" elif 		"(${iblock}==2)" 		"print		'${imc}  ${pass}  ${n_system}  ${E_system}  ${E_trial}  ${vol_system}  ${vol_GC}  ${pr_system}  ${prob_MC}  ${iMCflag}  ${n_MC}  ${n_GCMC}  ${iblock}  ${prob1}  ${prob2}  delete fail  ${nGCdeleted}' append status.log" 		"variable	iblock equal 0" 		"variable	prob1 equal 0" 		"variable	prob2 equal 0" 		"jump		SELF MDfreqrun"



#Add atom block
print 		"iMCflag at add block: ${iMCflag}"
iMCflag at add block: 0
if 		"(${iMCflag} == 2)" then 		"print 		'in add block'" 		"variable	iblock equal 3" 		"clear" 		"read_restart	refile" 		"variable	flgCoord delete" 		"variable	flgCoord python	getRandCoords" 		"python		getRandCoords input 5 0 0 ${Rmin} ${Rmax} SELF return v_flgCoord format iiffpi file getcoord.py" 		"python		getRandCoords invoke"


if 		"(${iblock}==3) && (${flgCoord}==1)" 	then 		"create_atoms	${typeGC} single ${rx} ${ry} ${rz} units box" 		"variable	ncreated equal ${n_trial}" 		"print 		'ncreated is ${ncreated}'" 		"group		created id ${ncreated}" 		"variable	rvx equal (2*${rn_01}-1)*${therm_vel}*${EmMD}" 		"variable	rvy equal (2*${rn_01}-1)*${therm_vel}*${EmMD}" 		"variable	rvz equal (2*${rn_01}-1)*${therm_vel}*${EmMD}" 		"velocity	created set ${rvx} ${rvy} ${rvz}" 		"group		created delete" 		"jump		SELF run_control" elif		"${iblock}==3" 		"print		'${imc}  ${pass}  ${n_system}  ${E_system}  ${E_system}  ${vol_system}  ${vol_GC}  ${pr_system}  ${prob_MC}  ${iMCflag}  ${n_MC}  ${n_GCMC}  ${iblock}  ${prob1}  ${prob2}  add fail getrandCoords' append status.log" 		"variable	iblock equal 0" 		"variable	prob1 equal 0" 		"variable	prob2 equal 0" 		"jump		SELF MDfreqrun"

label		iblock3
print 		"iblock:${iblock}"
iblock:0
if 		"${iblock}==3" 	then 		"variable	prob1 equal	(${vol_GC}/((${n_system}+1)*(${lambda}^3)))*exp(-${beta}*(${E_trial}-${E_system}-${mu}))" 		"variable	prob2 equal	${rn_01}" 		"print 		'beta:${beta}; E_trail:${E_trial}; E_system:${E_system};prob1:${prob1}; prob2:${prob2}'"

print 		"iblock:${iblock}"
iblock:0
if 		"(${iblock}==3) && (${prob1}>${prob2})" then 		"variable	n_system equal ${n_trial}" 		"variable	E_system equal ${E_trial}" 		"variable	vol_system equal ${vol_trial}" 		"variable	pr_system equal ${pr_trial}" 		"print 		'${imc}  ${n_GCMC}  ${Pe}  ${eb}  ${ea}  ${elp}  ${emol}  ${ev}  ${epen}  ${ecoa}  ${ehb}  ${et}  ${eco}  ${ew}  ${ep}  ${efi}  ${eqeq}' append ener_comp" 		"print 		'${imc}  ${n_GCMC}  ${Pe}  ${Ke}  ${Te}  ${V}  ${Tmp}  ${P}  ${Px}  ${Py}  ${Pz}  ${Lx}  ${Ly}  ${Lz}  ${Dens}' append Thermo" 		"shell		cat dump.last >> dump.reax" 		"shell		cat bonds.last >> bonds.out" 		"shell		cat dump.strs.last >> dump.strs" 		"next		pass" 		"print		'${imc}  ${pass}  ${n_system}  ${E_system}  ${E_trial}  ${vol_system}  ${vol_GC}  ${pr_system}  ${prob_MC}  ${iMCflag}  ${n_MC}  ${n_GCMC}  ${iblock}  ${prob1}  ${prob2}  add pass  ${ncreated}  ${rx}  ${ry}  ${rz} ${rvx}  ${rvy}  ${rvz}' append status.log" 		"print 		'PE is ${E_system}, total atoms are ${n_system}'" 		"print 		'${imc}  ${pass}  ${n_system}  ${E_system}  ${vol_system}  ${vol_GC}  ${pr_system}  ${prob1}  ${prob2}' append MClog" 		"write_restart	refile" 		"variable	iblock equal 0" 		"variable	prob1 equal 0" 		"variable	prob2 equal 0" 		"jump		SELF MDfreqrun" elif 		"(${iblock}==3)" 		"print		'${imc}  ${pass}  ${n_system}  ${E_system}  ${E_trial}  ${vol_system}  ${vol_GC}  ${pr_system}  ${prob_MC}  ${iMCflag}  ${n_MC}  ${n_GCMC}  ${iblock}  ${prob1}  ${prob2}  add fail  ${ncreated}  ${rx}  ${ry}  ${rz} ${rvx}  ${rvy}  ${rvz}' append status.log" 		"variable	iblock equal 0" 		"variable	prob1 equal 0" 		"variable	prob2 equal 0" 		"jump		SELF MDfreqrun"



#Volume block (NPT)
print 		"iMCflag at vol block: ${iMCflag}"
iMCflag at vol block: 0
if 		"(${iMCflag} == 3)" then 		"print 'in vol block'" 		"variable	iblock equal 4" 		"clear" 		"read_restart	refile" 		"variable	vfactor equal (1+(2*${rn_01}-1)*${vfactIn})" 		"change_box	all x scale ${vfactor} y scale ${vfactor} z scale ${vfactor} remap" 		"print 		'vfactor is ${vfactor}'" 		"jump		SELF run_control"

label		iblock4
print	 	"iblock:${iblock}"
iblock:0
if 		"${iblock}==4" 	then 		"variable	prob1 equal	(exp((${n_system}*ln(${vfactor}*${vfactor}*${vfactor}))-(${beta}*(${E_trial}-${E_system}))-(${beta}*${Pressure}*0.143941*(${vol_GC}*(1-${vfactor}*${vfactor}*${vfactor})))))" 		"variable	prob2 equal	${rn_01}" 		"print 		'beta:${beta}; E_trail:${E_trial}; E_system:${E_system};prob1:${prob1}; prob2:${prob2}'"

print 		"iblock:${iblock}"
iblock:0
if	 	"(${iblock}==4) && (${prob1}>${prob2})" then 		"variable	n_system equal ${n_trial}" 		"variable	E_system equal ${E_trial}" 		"variable	vol_system equal ${vol_trial}" 		"variable	pr_system equal ${pr_trial}" 		"print 		'${imc}  ${n_GCMC}  ${Pe}  ${eb}  ${ea}  ${elp}  ${emol}  ${ev}  ${epen}  ${ecoa}  ${ehb}  ${et}  ${eco}  ${ew}  ${ep}  ${efi}  ${eqeq}' append ener_comp" 		"print 		'${imc}  ${n_GCMC}  ${Pe}  ${Ke}  ${Te}  ${V}  ${Tmp}  ${P}  ${Px}  ${Py}  ${Pz}  ${Lx}  ${Ly}  ${Lz}  ${Dens}' append Thermo" 		"shell		cat dump.last >> dump.reax" 		"shell		cat bonds.last >> bonds.out" 		"shell		cat dump.strs.last >> dump.strs" 		"next		pass" 		"print		'${imc}  ${pass}  ${n_system}  ${E_system}  ${E_trial}  ${vol_system}  ${vol_GC}  ${pr_system}  ${prob_MC}  ${n_MC}  ${n_GCMC}  ${iblock}  ${prob1}  ${prob2}  vol pass  ${vfactor}*${vfactor}*${vfactor}' append status.log" 		"print 		'PE is ${E_system}, total atoms are ${n_system}'" 		"print 		'${imc}  ${pass}  ${n_system}  ${E_system}  ${vol_system}  ${vol_GC}  ${pr_system}  ${prob1}  ${prob2}' append MClog" 		"write_restart	refile" 		"variable	iblock equal 0" 		"variable	prob1 equal 0" 		"variable	prob2 equal 0" 		"jump		SELF MDfreqrun" elif 		"(${iblock}==4)" 		"print		'${imc}  ${pass}  ${n_system}  ${E_system}  ${E_trial}  ${vol_system}  ${vol_GC}  ${pr_system}  ${prob_MC}  ${n_MC}  ${n_GCMC}  ${iblock}  ${prob1}  ${prob2}  vol fail  ${vfactor}*${vfactor}*${vfactor}' append status.log" 		"variable	iblock equal 0" 		"variable	prob1 equal 0" 		"variable	prob2 equal 0" 		"jump		SELF MDfreqrun"



#iMDfreq Reax run
label		MDfreqrun
if		"(${MDcheck}==0)" then 		"variable 	iblock equal 5" 		"print 		'iMDfreq Reax run at imc: ${imc}'" 		"print 		'in iMDfreq block'" 		"variable	MDstp equal	${MDstp2}" else		"jump		SELF imcloop"
jump		SELF imcloop
if		"${imc} >= ${nmciter}" then "print 'End of loop'" 	"quit"
next		imc
print		"imc, pass: ${imc}, ${pass}"
imc, pass: 2, 0
variable	prob_MC equal	${rn_01}
variable	prob_MC equal	0.552509307861328
if		"${iEnsmble}!=3" then "variable iMCflag equal floor(${iMCpick}*${prob_MC})"
variable iMCflag equal floor(${iMCpick}*${prob_MC})
variable iMCflag equal floor(3*${prob_MC})
variable iMCflag equal floor(3*0.552509307861328)
print 		"prob_MC, iMCflag: ${prob_MC}, ${iMCflag}"
prob_MC, iMCflag: 0.552509307861328, 1
print 		"n_MC:${n_MC}; n_GCMC:${n_GCMC}"
n_MC:0; n_GCMC:0
variable	iblock equal	0
variable	prob1 equal	0
variable	prob2 equal	0
variable	rx string	0
variable	ry string	0
variable	rz string	0
variable	flgCoord delete
variable	flgCoord equal	0
print 		"iblock:${iblock}"
iblock:0
#run		0 pre no post no
#print		"${imc}  ${pass}  ${n_system}  ${E_system}  ${E_trial}  ${vol_system}  ${vol_GC}  ${pr_system}  ${prob_MC}  ${iMCflag}  ${n_MC}  ${n_GCMC}  ${iblock}  ${prob1}  ${prob2}  loop head" append status.log



#Displace atom block
if 		"(${iMCflag} == 0) && (${n_MC}>0)" then 		"print 		'in displace block'" 		"variable	iblock equal 1" 		"variable	nMCmoved equal	floor(${inonMC}+${rn_01}*${n_MC})+1" 		"print 		'nMCmoved is ${nMCmoved}'" 		"clear" 		"read_restart	refile" 		"group		disp id ${nMCmoved}" 		"variable	flgCoord delete" 		"variable	flgCoord python	getRandCoords" 		"python		getRandCoords input 5 1 ${nMCmoved} ${Rmin} ${Rmax} SELF return v_flgCoord format iiffpi file getcoord.py" 		"python		getRandCoords invoke"

if 		"(${iblock}==1) && (${flgCoord}==1)" 	then 		"displace_atoms	disp move ${rx} ${ry} ${rz} units box" 		"group		disp delete" 		"jump		SELF run_control" elif		"${iblock}==1" 		"print		'${imc}  ${pass}  ${n_system}  ${E_system}  ${E_system}  ${vol_system}  ${vol_GC}  ${pr_system}  ${prob_MC}  ${iMCflag}  ${n_MC}  ${n_GCMC}  ${iblock}  ${prob1}  ${prob2}  add fail getrandCoords' append status.log" 		"variable	iblock equal 0" 		"variable	prob1 equal 0" 		"variable	prob2 equal 0" 		"jump		SELF MDfreqrun"

label		iblock1
print		"iblock:${iblock}"
iblock:0
if 		"${iblock}==1" 	then 		"variable	prob1 equal	exp(-${beta}*(${E_trial}-${E_system}))" 		"variable	prob2 equal	${rn_01}" 		"print 		'beta:${beta}; E_trail:${E_trial}; E_system:${E_system};prob1:${prob1}; prob2:${prob2}'"

print		"iblock:${iblock}"
iblock:0
if 		"(${iblock}==1) && (${prob1}>${prob2})" then 		"variable	n_system equal ${n_trial}" 		"variable	E_system equal ${E_trial}" 		"variable	vol_system equal ${vol_trial}" 		"variable	pr_system equal ${pr_trial}" 		"print 		'${imc}  ${n_GCMC}  ${Pe}  ${eb}  ${ea}  ${elp}  ${emol}  ${ev}  ${epen}  ${ecoa}  ${ehb}  ${et}  ${eco}  ${ew}  ${ep}  ${efi}  ${eqeq}' append ener_comp" 		"print 		'${imc}  ${n_GCMC}  ${Pe}  ${Ke}  ${Te}  ${V}  ${Tmp}  ${P}  ${Px}  ${Py}  ${Pz}  ${Lx}  ${Ly}  ${Lz}  ${Dens}' append Thermo" 		"shell		cat dump.last >> dump.reax" 		"shell		cat bonds.last >> bonds.out" 		"shell		cat dump.strs.last >> dump.strs" 		"next		pass" 		"print		'${imc}  ${pass}  ${n_system}  ${E_system}  ${E_trial}  ${vol_system}  ${vol_GC}  ${pr_system}  ${prob_MC}  ${iMCflag}  ${n_MC}  ${n_GCMC}  ${iblock}  ${prob1}  ${prob2}  displace pass  ${nMCmoved}  ${rx}  ${ry}  ${rz}' append status.log" 		"print 		'PE is ${E_system}, total atoms are ${n_system}'" 		"print 		'${imc}  ${pass}  ${n_system}  ${E_system}  ${vol_system}  ${vol_GC}  ${pr_system}  ${prob1}  ${prob2}' append MClog" 		"write_restart	refile" 		"variable	iblock equal 0" 		"variable	prob1 equal 0" 		"variable	prob2 equal 0" 		"jump		SELF MDfreqrun" elif 		"(${iblock}==1)" 		"print		'${imc}  ${pass}  ${n_system}  ${E_system}  ${E_trial}  ${vol_system}  ${vol_GC}  ${pr_system}  ${prob_MC}  ${iMCflag}  ${n_MC}  ${n_GCMC}  ${iblock}  ${prob1}  ${prob2}  displace fail  ${nMCmoved}  ${rx}  ${ry}  ${rz}' append status.log" 		"variable	iblock equal 0" 		"variable	prob1 equal 0" 		"variable	prob2 equal 0" 		"jump		SELF MDfreqrun"



#Delete atom block
print 		"iMCflag at delete block: ${iMCflag}"
iMCflag at delete block: 1
if 		"(${iMCflag} == 1) && (${n_GCMC}>0)" then 		"print 		'in delete block'" 		"variable	iblock equal 2" 		"variable	nGCdeleted equal floor(${iMC}+${rn_01}*${n_GCMC})+1" 		"print 		'nGCdeleted trying on ${nGCdeleted}'" 		"variable	lastatom equal ${n_system}" 		"clear" 		"read_restart	refile" 		"variable	lastx equal x[${lastatom}]" 		"variable	lasty equal y[${lastatom}]" 		"variable	lastz equal z[${lastatom}]" 		"variable	lastvx equal vx[${lastatom}]" 		"variable	lastvy equal vy[${lastatom}]" 		"variable	lastvz equal vz[${lastatom}]" 		"variable	lasttyp equal type[${lastatom}]" 		"variable	tx equal ${lastx}" 		"variable	ty equal ${lasty}" 		"variable	tz equal ${lastz}" 		"variable	tvx equal ${lastvx}" 		"variable	tvy equal ${lastvy}" 		"variable	tvz equal ${lastvz}" 		"variable	ttyp equal ${lasttyp}" 		"variable	delx equal x[${nGCdeleted}]" 		"variable	dely equal y[${nGCdeleted}]" 		"variable	delz equal z[${nGCdeleted}]" 		"variable	dx equal (${tx}-${delx})" 		"variable	dy equal (${ty}-${dely})" 		"variable	dz equal (${tz}-${delz})" 		"print		'Del atom, coords: ${nGCdeleted} ${delx} ${dely} ${delz}; Last coords: ${tx} ${ty} ${tz}'" 		"print		'Last vels: ${tvx} ${tvy} ${tvz} Last type: ${ttyp}'" 		"group		del id ${lastatom}" 		"delete_atoms	group del compress no" 		"group		del delete" 		"group		delDisp id ${nGCdeleted}" 		"displace_atoms	delDisp move ${dx} ${dy} ${dz}" 		"group		delDisp delete" 		"set		atom ${nGCdeleted} vx ${tvx} vy ${tvy} vz ${tvz}" 		"set		atom ${nGCdeleted} type ${ttyp}" 		"jump		SELF run_control"

label		iblock2
print 		"iblock:${iblock}"
iblock:0
if 		"${iblock}==2" 	then 		"variable	prob1 equal	(${n_system}*(${lambda}^3)/${vol_GC})*exp(-${beta}*(${E_trial}-${E_system}+${mu}))" 		"variable	prob2 equal	${rn_01}" 		"print 		'beta:${beta}; E_trail:${E_trial}; E_system:${E_system};prob1:${prob1}; prob2:${prob2}'"

print 		"iblock:${iblock}"
iblock:0
if 		"(${iblock}==2) && (${prob1}>${prob2})" then 		"variable	n_system equal ${n_trial}" 		"variable	E_system equal ${E_trial}" 		"variable	vol_system equal ${vol_trial}" 		"variable	pr_system equal ${pr_trial}" 		"print 		'${imc}  ${n_GCMC}  ${Pe}  ${eb}  ${ea}  ${elp}  ${emol}  ${ev}  ${epen}  ${ecoa}  ${ehb}  ${et}  ${eco}  ${ew}  ${ep}  ${efi}  ${eqeq}' append ener_comp" 		"print 		'${imc}  ${n_GCMC}  ${Pe}  ${Ke}  ${Te}  ${V}  ${Tmp}  ${P}  ${Px}  ${Py}  ${Pz}  ${Lx}  ${Ly}  ${Lz}  ${Dens}' append Thermo" 		"shell		cat dump.last >> dump.reax" 		"shell		cat bonds.last >> bonds.out" 		"shell		cat dump.strs.last >> dump.strs" 		"next		pass" 		"print		'${imc}  ${pass}  ${n_system}  ${E_system}  ${E_trial}  ${vol_system}  ${vol_GC}  ${pr_system}  ${prob_MC}  ${iMCflag}  ${n_MC}  ${n_GCMC}  ${iblock}  ${prob1}  ${prob2}  delete  pass  ${nGCdeleted}' append status.log" 		"print 		'PE is ${E_system}, total atoms are ${n_system}'" 		"print 		'${imc}  ${pass}  ${n_system}  ${E_system}  ${vol_system}  ${vol_GC}  ${pr_system}  ${prob1}  ${prob2}' append MClog" 		"write_restart	refile" 		"variable	iblock equal 0" 		"variable	prob1 equal 0" 		"variable	prob2 equal 0" 		"jump		SELF MDfreqrun" elif 		"(${iblock}==2)" 		"print		'${imc}  ${pass}  ${n_system}  ${E_system}  ${E_trial}  ${vol_system}  ${vol_GC}  ${pr_system}  ${prob_MC}  ${iMCflag}  ${n_MC}  ${n_GCMC}  ${iblock}  ${prob1}  ${prob2}  delete fail  ${nGCdeleted}' append status.log" 		"variable	iblock equal 0" 		"variable	prob1 equal 0" 		"variable	prob2 equal 0" 		"jump		SELF MDfreqrun"



#Add atom block
print 		"iMCflag at add block: ${iMCflag}"
iMCflag at add block: 1
if 		"(${iMCflag} == 2)" then 		"print 		'in add block'" 		"variable	iblock equal 3" 		"clear" 		"read_restart	refile" 		"variable	flgCoord delete" 		"variable	flgCoord python	getRandCoords" 		"python		getRandCoords input 5 0 0 ${Rmin} ${Rmax} SELF return v_flgCoord format iiffpi file getcoord.py" 		"python		getRandCoords invoke"


if 		"(${iblock}==3) && (${flgCoord}==1)" 	then 		"create_atoms	${typeGC} single ${rx} ${ry} ${rz} units box" 		"variable	ncreated equal ${n_trial}" 		"print 		'ncreated is ${ncreated}'" 		"group		created id ${ncreated}" 		"variable	rvx equal (2*${rn_01}-1)*${therm_vel}*${EmMD}" 		"variable	rvy equal (2*${rn_01}-1)*${therm_vel}*${EmMD}" 		"variable	rvz equal (2*${rn_01}-1)*${therm_vel}*${EmMD}" 		"velocity	created set ${rvx} ${rvy} ${rvz}" 		"group		created delete" 		"jump		SELF run_control" elif		"${iblock}==3" 		"print		'${imc}  ${pass}  ${n_system}  ${E_system}  ${E_system}  ${vol_system}  ${vol_GC}  ${pr_system}  ${prob_MC}  ${iMCflag}  ${n_MC}  ${n_GCMC}  ${iblock}  ${prob1}  ${prob2}  add fail getrandCoords' append status.log" 		"variable	iblock equal 0" 		"variable	prob1 equal 0" 		"variable	prob2 equal 0" 		"jump		SELF MDfreqrun"

label		iblock3
print 		"iblock:${iblock}"
iblock:0
if 		"${iblock}==3" 	then 		"variable	prob1 equal	(${vol_GC}/((${n_system}+1)*(${lambda}^3)))*exp(-${beta}*(${E_trial}-${E_system}-${mu}))" 		"variable	prob2 equal	${rn_01}" 		"print 		'beta:${beta}; E_trail:${E_trial}; E_system:${E_system};prob1:${prob1}; prob2:${prob2}'"

print 		"iblock:${iblock}"
iblock:0
if 		"(${iblock}==3) && (${prob1}>${prob2})" then 		"variable	n_system equal ${n_trial}" 		"variable	E_system equal ${E_trial}" 		"variable	vol_system equal ${vol_trial}" 		"variable	pr_system equal ${pr_trial}" 		"print 		'${imc}  ${n_GCMC}  ${Pe}  ${eb}  ${ea}  ${elp}  ${emol}  ${ev}  ${epen}  ${ecoa}  ${ehb}  ${et}  ${eco}  ${ew}  ${ep}  ${efi}  ${eqeq}' append ener_comp" 		"print 		'${imc}  ${n_GCMC}  ${Pe}  ${Ke}  ${Te}  ${V}  ${Tmp}  ${P}  ${Px}  ${Py}  ${Pz}  ${Lx}  ${Ly}  ${Lz}  ${Dens}' append Thermo" 		"shell		cat dump.last >> dump.reax" 		"shell		cat bonds.last >> bonds.out" 		"shell		cat dump.strs.last >> dump.strs" 		"next		pass" 		"print		'${imc}  ${pass}  ${n_system}  ${E_system}  ${E_trial}  ${vol_system}  ${vol_GC}  ${pr_system}  ${prob_MC}  ${iMCflag}  ${n_MC}  ${n_GCMC}  ${iblock}  ${prob1}  ${prob2}  add pass  ${ncreated}  ${rx}  ${ry}  ${rz} ${rvx}  ${rvy}  ${rvz}' append status.log" 		"print 		'PE is ${E_system}, total atoms are ${n_system}'" 		"print 		'${imc}  ${pass}  ${n_system}  ${E_system}  ${vol_system}  ${vol_GC}  ${pr_system}  ${prob1}  ${prob2}' append MClog" 		"write_restart	refile" 		"variable	iblock equal 0" 		"variable	prob1 equal 0" 		"variable	prob2 equal 0" 		"jump		SELF MDfreqrun" elif 		"(${iblock}==3)" 		"print		'${imc}  ${pass}  ${n_system}  ${E_system}  ${E_trial}  ${vol_system}  ${vol_GC}  ${pr_system}  ${prob_MC}  ${iMCflag}  ${n_MC}  ${n_GCMC}  ${iblock}  ${prob1}  ${prob2}  add fail  ${ncreated}  ${rx}  ${ry}  ${rz} ${rvx}  ${rvy}  ${rvz}' append status.log" 		"variable	iblock equal 0" 		"variable	prob1 equal 0" 		"variable	prob2 equal 0" 		"jump		SELF MDfreqrun"



#Volume block (NPT)
print 		"iMCflag at vol block: ${iMCflag}"
iMCflag at vol block: 1
if 		"(${iMCflag} == 3)" then 		"print 'in vol block'" 		"variable	iblock equal 4" 		"clear" 		"read_restart	refile" 		"variable	vfactor equal (1+(2*${rn_01}-1)*${vfactIn})" 		"change_box	all x scale ${vfactor} y scale ${vfactor} z scale ${vfactor} remap" 		"print 		'vfactor is ${vfactor}'" 		"jump		SELF run_control"

label		iblock4
print	 	"iblock:${iblock}"
iblock:0
if 		"${iblock}==4" 	then 		"variable	prob1 equal	(exp((${n_system}*ln(${vfactor}*${vfactor}*${vfactor}))-(${beta}*(${E_trial}-${E_system}))-(${beta}*${Pressure}*0.143941*(${vol_GC}*(1-${vfactor}*${vfactor}*${vfactor})))))" 		"variable	prob2 equal	${rn_01}" 		"print 		'beta:${beta}; E_trail:${E_trial}; E_system:${E_system};prob1:${prob1}; prob2:${prob2}'"

print 		"iblock:${iblock}"
iblock:0
if	 	"(${iblock}==4) && (${prob1}>${prob2})" then 		"variable	n_system equal ${n_trial}" 		"variable	E_system equal ${E_trial}" 		"variable	vol_system equal ${vol_trial}" 		"variable	pr_system equal ${pr_trial}" 		"print 		'${imc}  ${n_GCMC}  ${Pe}  ${eb}  ${ea}  ${elp}  ${emol}  ${ev}  ${epen}  ${ecoa}  ${ehb}  ${et}  ${eco}  ${ew}  ${ep}  ${efi}  ${eqeq}' append ener_comp" 		"print 		'${imc}  ${n_GCMC}  ${Pe}  ${Ke}  ${Te}  ${V}  ${Tmp}  ${P}  ${Px}  ${Py}  ${Pz}  ${Lx}  ${Ly}  ${Lz}  ${Dens}' append Thermo" 		"shell		cat dump.last >> dump.reax" 		"shell		cat bonds.last >> bonds.out" 		"shell		cat dump.strs.last >> dump.strs" 		"next		pass" 		"print		'${imc}  ${pass}  ${n_system}  ${E_system}  ${E_trial}  ${vol_system}  ${vol_GC}  ${pr_system}  ${prob_MC}  ${n_MC}  ${n_GCMC}  ${iblock}  ${prob1}  ${prob2}  vol pass  ${vfactor}*${vfactor}*${vfactor}' append status.log" 		"print 		'PE is ${E_system}, total atoms are ${n_system}'" 		"print 		'${imc}  ${pass}  ${n_system}  ${E_system}  ${vol_system}  ${vol_GC}  ${pr_system}  ${prob1}  ${prob2}' append MClog" 		"write_restart	refile" 		"variable	iblock equal 0" 		"variable	prob1 equal 0" 		"variable	prob2 equal 0" 		"jump		SELF MDfreqrun" elif 		"(${iblock}==4)" 		"print		'${imc}  ${pass}  ${n_system}  ${E_system}  ${E_trial}  ${vol_system}  ${vol_GC}  ${pr_system}  ${prob_MC}  ${n_MC}  ${n_GCMC}  ${iblock}  ${prob1}  ${prob2}  vol fail  ${vfactor}*${vfactor}*${vfactor}' append status.log" 		"variable	iblock equal 0" 		"variable	prob1 equal 0" 		"variable	prob2 equal 0" 		"jump		SELF MDfreqrun"



#iMDfreq Reax run
label		MDfreqrun
if		"(${MDcheck}==0)" then 		"variable 	iblock equal 5" 		"print 		'iMDfreq Reax run at imc: ${imc}'" 		"print 		'in iMDfreq block'" 		"variable	MDstp equal	${MDstp2}" else		"jump		SELF imcloop"
jump		SELF imcloop
if		"${imc} >= ${nmciter}" then "print 'End of loop'" 	"quit"
next		imc
print		"imc, pass: ${imc}, ${pass}"
imc, pass: 3, 0
variable	prob_MC equal	${rn_01}
variable	prob_MC equal	0.593216121196747
if		"${iEnsmble}!=3" then "variable iMCflag equal floor(${iMCpick}*${prob_MC})"
variable iMCflag equal floor(${iMCpick}*${prob_MC})
variable iMCflag equal floor(3*${prob_MC})
variable iMCflag equal floor(3*0.593216121196747)
print 		"prob_MC, iMCflag: ${prob_MC}, ${iMCflag}"
prob_MC, iMCflag: 0.593216121196747, 1
print 		"n_MC:${n_MC}; n_GCMC:${n_GCMC}"
n_MC:0; n_GCMC:0
variable	iblock equal	0
variable	prob1 equal	0
variable	prob2 equal	0
variable	rx string	0
variable	ry string	0
variable	rz string	0
variable	flgCoord delete
variable	flgCoord equal	0
print 		"iblock:${iblock}"
iblock:0
#run		0 pre no post no
#print		"${imc}  ${pass}  ${n_system}  ${E_system}  ${E_trial}  ${vol_system}  ${vol_GC}  ${pr_system}  ${prob_MC}  ${iMCflag}  ${n_MC}  ${n_GCMC}  ${iblock}  ${prob1}  ${prob2}  loop head" append status.log



#Displace atom block
if 		"(${iMCflag} == 0) && (${n_MC}>0)" then 		"print 		'in displace block'" 		"variable	iblock equal 1" 		"variable	nMCmoved equal	floor(${inonMC}+${rn_01}*${n_MC})+1" 		"print 		'nMCmoved is ${nMCmoved}'" 		"clear" 		"read_restart	refile" 		"group		disp id ${nMCmoved}" 		"variable	flgCoord delete" 		"variable	flgCoord python	getRandCoords" 		"python		getRandCoords input 5 1 ${nMCmoved} ${Rmin} ${Rmax} SELF return v_flgCoord format iiffpi file getcoord.py" 		"python		getRandCoords invoke"

if 		"(${iblock}==1) && (${flgCoord}==1)" 	then 		"displace_atoms	disp move ${rx} ${ry} ${rz} units box" 		"group		disp delete" 		"jump		SELF run_control" elif		"${iblock}==1" 		"print		'${imc}  ${pass}  ${n_system}  ${E_system}  ${E_system}  ${vol_system}  ${vol_GC}  ${pr_system}  ${prob_MC}  ${iMCflag}  ${n_MC}  ${n_GCMC}  ${iblock}  ${prob1}  ${prob2}  add fail getrandCoords' append status.log" 		"variable	iblock equal 0" 		"variable	prob1 equal 0" 		"variable	prob2 equal 0" 		"jump		SELF MDfreqrun"

label		iblock1
print		"iblock:${iblock}"
iblock:0
if 		"${iblock}==1" 	then 		"variable	prob1 equal	exp(-${beta}*(${E_trial}-${E_system}))" 		"variable	prob2 equal	${rn_01}" 		"print 		'beta:${beta}; E_trail:${E_trial}; E_system:${E_system};prob1:${prob1}; prob2:${prob2}'"

print		"iblock:${iblock}"
iblock:0
if 		"(${iblock}==1) && (${prob1}>${prob2})" then 		"variable	n_system equal ${n_trial}" 		"variable	E_system equal ${E_trial}" 		"variable	vol_system equal ${vol_trial}" 		"variable	pr_system equal ${pr_trial}" 		"print 		'${imc}  ${n_GCMC}  ${Pe}  ${eb}  ${ea}  ${elp}  ${emol}  ${ev}  ${epen}  ${ecoa}  ${ehb}  ${et}  ${eco}  ${ew}  ${ep}  ${efi}  ${eqeq}' append ener_comp" 		"print 		'${imc}  ${n_GCMC}  ${Pe}  ${Ke}  ${Te}  ${V}  ${Tmp}  ${P}  ${Px}  ${Py}  ${Pz}  ${Lx}  ${Ly}  ${Lz}  ${Dens}' append Thermo" 		"shell		cat dump.last >> dump.reax" 		"shell		cat bonds.last >> bonds.out" 		"shell		cat dump.strs.last >> dump.strs" 		"next		pass" 		"print		'${imc}  ${pass}  ${n_system}  ${E_system}  ${E_trial}  ${vol_system}  ${vol_GC}  ${pr_system}  ${prob_MC}  ${iMCflag}  ${n_MC}  ${n_GCMC}  ${iblock}  ${prob1}  ${prob2}  displace pass  ${nMCmoved}  ${rx}  ${ry}  ${rz}' append status.log" 		"print 		'PE is ${E_system}, total atoms are ${n_system}'" 		"print 		'${imc}  ${pass}  ${n_system}  ${E_system}  ${vol_system}  ${vol_GC}  ${pr_system}  ${prob1}  ${prob2}' append MClog" 		"write_restart	refile" 		"variable	iblock equal 0" 		"variable	prob1 equal 0" 		"variable	prob2 equal 0" 		"jump		SELF MDfreqrun" elif 		"(${iblock}==1)" 		"print		'${imc}  ${pass}  ${n_system}  ${E_system}  ${E_trial}  ${vol_system}  ${vol_GC}  ${pr_system}  ${prob_MC}  ${iMCflag}  ${n_MC}  ${n_GCMC}  ${iblock}  ${prob1}  ${prob2}  displace fail  ${nMCmoved}  ${rx}  ${ry}  ${rz}' append status.log" 		"variable	iblock equal 0" 		"variable	prob1 equal 0" 		"variable	prob2 equal 0" 		"jump		SELF MDfreqrun"



#Delete atom block
print 		"iMCflag at delete block: ${iMCflag}"
iMCflag at delete block: 1
if 		"(${iMCflag} == 1) && (${n_GCMC}>0)" then 		"print 		'in delete block'" 		"variable	iblock equal 2" 		"variable	nGCdeleted equal floor(${iMC}+${rn_01}*${n_GCMC})+1" 		"print 		'nGCdeleted trying on ${nGCdeleted}'" 		"variable	lastatom equal ${n_system}" 		"clear" 		"read_restart	refile" 		"variable	lastx equal x[${lastatom}]" 		"variable	lasty equal y[${lastatom}]" 		"variable	lastz equal z[${lastatom}]" 		"variable	lastvx equal vx[${lastatom}]" 		"variable	lastvy equal vy[${lastatom}]" 		"variable	lastvz equal vz[${lastatom}]" 		"variable	lasttyp equal type[${lastatom}]" 		"variable	tx equal ${lastx}" 		"variable	ty equal ${lasty}" 		"variable	tz equal ${lastz}" 		"variable	tvx equal ${lastvx}" 		"variable	tvy equal ${lastvy}" 		"variable	tvz equal ${lastvz}" 		"variable	ttyp equal ${lasttyp}" 		"variable	delx equal x[${nGCdeleted}]" 		"variable	dely equal y[${nGCdeleted}]" 		"variable	delz equal z[${nGCdeleted}]" 		"variable	dx equal (${tx}-${delx})" 		"variable	dy equal (${ty}-${dely})" 		"variable	dz equal (${tz}-${delz})" 		"print		'Del atom, coords: ${nGCdeleted} ${delx} ${dely} ${delz}; Last coords: ${tx} ${ty} ${tz}'" 		"print		'Last vels: ${tvx} ${tvy} ${tvz} Last type: ${ttyp}'" 		"group		del id ${lastatom}" 		"delete_atoms	group del compress no" 		"group		del delete" 		"group		delDisp id ${nGCdeleted}" 		"displace_atoms	delDisp move ${dx} ${dy} ${dz}" 		"group		delDisp delete" 		"set		atom ${nGCdeleted} vx ${tvx} vy ${tvy} vz ${tvz}" 		"set		atom ${nGCdeleted} type ${ttyp}" 		"jump		SELF run_control"

label		iblock2
print 		"iblock:${iblock}"
iblock:0
if 		"${iblock}==2" 	then 		"variable	prob1 equal	(${n_system}*(${lambda}^3)/${vol_GC})*exp(-${beta}*(${E_trial}-${E_system}+${mu}))" 		"variable	prob2 equal	${rn_01}" 		"print 		'beta:${beta}; E_trail:${E_trial}; E_system:${E_system};prob1:${prob1}; prob2:${prob2}'"

print 		"iblock:${iblock}"
iblock:0
if 		"(${iblock}==2) && (${prob1}>${prob2})" then 		"variable	n_system equal ${n_trial}" 		"variable	E_system equal ${E_trial}" 		"variable	vol_system equal ${vol_trial}" 		"variable	pr_system equal ${pr_trial}" 		"print 		'${imc}  ${n_GCMC}  ${Pe}  ${eb}  ${ea}  ${elp}  ${emol}  ${ev}  ${epen}  ${ecoa}  ${ehb}  ${et}  ${eco}  ${ew}  ${ep}  ${efi}  ${eqeq}' append ener_comp" 		"print 		'${imc}  ${n_GCMC}  ${Pe}  ${Ke}  ${Te}  ${V}  ${Tmp}  ${P}  ${Px}  ${Py}  ${Pz}  ${Lx}  ${Ly}  ${Lz}  ${Dens}' append Thermo" 		"shell		cat dump.last >> dump.reax" 		"shell		cat bonds.last >> bonds.out" 		"shell		cat dump.strs.last >> dump.strs" 		"next		pass" 		"print		'${imc}  ${pass}  ${n_system}  ${E_system}  ${E_trial}  ${vol_system}  ${vol_GC}  ${pr_system}  ${prob_MC}  ${iMCflag}  ${n_MC}  ${n_GCMC}  ${iblock}  ${prob1}  ${prob2}  delete  pass  ${nGCdeleted}' append status.log" 		"print 		'PE is ${E_system}, total atoms are ${n_system}'" 		"print 		'${imc}  ${pass}  ${n_system}  ${E_system}  ${vol_system}  ${vol_GC}  ${pr_system}  ${prob1}  ${prob2}' append MClog" 		"write_restart	refile" 		"variable	iblock equal 0" 		"variable	prob1 equal 0" 		"variable	prob2 equal 0" 		"jump		SELF MDfreqrun" elif 		"(${iblock}==2)" 		"print		'${imc}  ${pass}  ${n_system}  ${E_system}  ${E_trial}  ${vol_system}  ${vol_GC}  ${pr_system}  ${prob_MC}  ${iMCflag}  ${n_MC}  ${n_GCMC}  ${iblock}  ${prob1}  ${prob2}  delete fail  ${nGCdeleted}' append status.log" 		"variable	iblock equal 0" 		"variable	prob1 equal 0" 		"variable	prob2 equal 0" 		"jump		SELF MDfreqrun"



#Add atom block
print 		"iMCflag at add block: ${iMCflag}"
iMCflag at add block: 1
if 		"(${iMCflag} == 2)" then 		"print 		'in add block'" 		"variable	iblock equal 3" 		"clear" 		"read_restart	refile" 		"variable	flgCoord delete" 		"variable	flgCoord python	getRandCoords" 		"python		getRandCoords input 5 0 0 ${Rmin} ${Rmax} SELF return v_flgCoord format iiffpi file getcoord.py" 		"python		getRandCoords invoke"


if 		"(${iblock}==3) && (${flgCoord}==1)" 	then 		"create_atoms	${typeGC} single ${rx} ${ry} ${rz} units box" 		"variable	ncreated equal ${n_trial}" 		"print 		'ncreated is ${ncreated}'" 		"group		created id ${ncreated}" 		"variable	rvx equal (2*${rn_01}-1)*${therm_vel}*${EmMD}" 		"variable	rvy equal (2*${rn_01}-1)*${therm_vel}*${EmMD}" 		"variable	rvz equal (2*${rn_01}-1)*${therm_vel}*${EmMD}" 		"velocity	created set ${rvx} ${rvy} ${rvz}" 		"group		created delete" 		"jump		SELF run_control" elif		"${iblock}==3" 		"print		'${imc}  ${pass}  ${n_system}  ${E_system}  ${E_system}  ${vol_system}  ${vol_GC}  ${pr_system}  ${prob_MC}  ${iMCflag}  ${n_MC}  ${n_GCMC}  ${iblock}  ${prob1}  ${prob2}  add fail getrandCoords' append status.log" 		"variable	iblock equal 0" 		"variable	prob1 equal 0" 		"variable	prob2 equal 0" 		"jump		SELF MDfreqrun"

label		iblock3
print 		"iblock:${iblock}"
iblock:0
if 		"${iblock}==3" 	then 		"variable	prob1 equal	(${vol_GC}/((${n_system}+1)*(${lambda}^3)))*exp(-${beta}*(${E_trial}-${E_system}-${mu}))" 		"variable	prob2 equal	${rn_01}" 		"print 		'beta:${beta}; E_trail:${E_trial}; E_system:${E_system};prob1:${prob1}; prob2:${prob2}'"

print 		"iblock:${iblock}"
iblock:0
if 		"(${iblock}==3) && (${prob1}>${prob2})" then 		"variable	n_system equal ${n_trial}" 		"variable	E_system equal ${E_trial}" 		"variable	vol_system equal ${vol_trial}" 		"variable	pr_system equal ${pr_trial}" 		"print 		'${imc}  ${n_GCMC}  ${Pe}  ${eb}  ${ea}  ${elp}  ${emol}  ${ev}  ${epen}  ${ecoa}  ${ehb}  ${et}  ${eco}  ${ew}  ${ep}  ${efi}  ${eqeq}' append ener_comp" 		"print 		'${imc}  ${n_GCMC}  ${Pe}  ${Ke}  ${Te}  ${V}  ${Tmp}  ${P}  ${Px}  ${Py}  ${Pz}  ${Lx}  ${Ly}  ${Lz}  ${Dens}' append Thermo" 		"shell		cat dump.last >> dump.reax" 		"shell		cat bonds.last >> bonds.out" 		"shell		cat dump.strs.last >> dump.strs" 		"next		pass" 		"print		'${imc}  ${pass}  ${n_system}  ${E_system}  ${E_trial}  ${vol_system}  ${vol_GC}  ${pr_system}  ${prob_MC}  ${iMCflag}  ${n_MC}  ${n_GCMC}  ${iblock}  ${prob1}  ${prob2}  add pass  ${ncreated}  ${rx}  ${ry}  ${rz} ${rvx}  ${rvy}  ${rvz}' append status.log" 		"print 		'PE is ${E_system}, total atoms are ${n_system}'" 		"print 		'${imc}  ${pass}  ${n_system}  ${E_system}  ${vol_system}  ${vol_GC}  ${pr_system}  ${prob1}  ${prob2}' append MClog" 		"write_restart	refile" 		"variable	iblock equal 0" 		"variable	prob1 equal 0" 		"variable	prob2 equal 0" 		"jump		SELF MDfreqrun" elif 		"(${iblock}==3)" 		"print		'${imc}  ${pass}  ${n_system}  ${E_system}  ${E_trial}  ${vol_system}  ${vol_GC}  ${pr_system}  ${prob_MC}  ${iMCflag}  ${n_MC}  ${n_GCMC}  ${iblock}  ${prob1}  ${prob2}  add fail  ${ncreated}  ${rx}  ${ry}  ${rz} ${rvx}  ${rvy}  ${rvz}' append status.log" 		"variable	iblock equal 0" 		"variable	prob1 equal 0" 		"variable	prob2 equal 0" 		"jump		SELF MDfreqrun"



#Volume block (NPT)
print 		"iMCflag at vol block: ${iMCflag}"
iMCflag at vol block: 1
if 		"(${iMCflag} == 3)" then 		"print 'in vol block'" 		"variable	iblock equal 4" 		"clear" 		"read_restart	refile" 		"variable	vfactor equal (1+(2*${rn_01}-1)*${vfactIn})" 		"change_box	all x scale ${vfactor} y scale ${vfactor} z scale ${vfactor} remap" 		"print 		'vfactor is ${vfactor}'" 		"jump		SELF run_control"

label		iblock4
print	 	"iblock:${iblock}"
iblock:0
if 		"${iblock}==4" 	then 		"variable	prob1 equal	(exp((${n_system}*ln(${vfactor}*${vfactor}*${vfactor}))-(${beta}*(${E_trial}-${E_system}))-(${beta}*${Pressure}*0.143941*(${vol_GC}*(1-${vfactor}*${vfactor}*${vfactor})))))" 		"variable	prob2 equal	${rn_01}" 		"print 		'beta:${beta}; E_trail:${E_trial}; E_system:${E_system};prob1:${prob1}; prob2:${prob2}'"

print 		"iblock:${iblock}"
iblock:0
if	 	"(${iblock}==4) && (${prob1}>${prob2})" then 		"variable	n_system equal ${n_trial}" 		"variable	E_system equal ${E_trial}" 		"variable	vol_system equal ${vol_trial}" 		"variable	pr_system equal ${pr_trial}" 		"print 		'${imc}  ${n_GCMC}  ${Pe}  ${eb}  ${ea}  ${elp}  ${emol}  ${ev}  ${epen}  ${ecoa}  ${ehb}  ${et}  ${eco}  ${ew}  ${ep}  ${efi}  ${eqeq}' append ener_comp" 		"print 		'${imc}  ${n_GCMC}  ${Pe}  ${Ke}  ${Te}  ${V}  ${Tmp}  ${P}  ${Px}  ${Py}  ${Pz}  ${Lx}  ${Ly}  ${Lz}  ${Dens}' append Thermo" 		"shell		cat dump.last >> dump.reax" 		"shell		cat bonds.last >> bonds.out" 		"shell		cat dump.strs.last >> dump.strs" 		"next		pass" 		"print		'${imc}  ${pass}  ${n_system}  ${E_system}  ${E_trial}  ${vol_system}  ${vol_GC}  ${pr_system}  ${prob_MC}  ${n_MC}  ${n_GCMC}  ${iblock}  ${prob1}  ${prob2}  vol pass  ${vfactor}*${vfactor}*${vfactor}' append status.log" 		"print 		'PE is ${E_system}, total atoms are ${n_system}'" 		"print 		'${imc}  ${pass}  ${n_system}  ${E_system}  ${vol_system}  ${vol_GC}  ${pr_system}  ${prob1}  ${prob2}' append MClog" 		"write_restart	refile" 		"variable	iblock equal 0" 		"variable	prob1 equal 0" 		"variable	prob2 equal 0" 		"jump		SELF MDfreqrun" elif 		"(${iblock}==4)" 		"print		'${imc}  ${pass}  ${n_system}  ${E_system}  ${E_trial}  ${vol_system}  ${vol_GC}  ${pr_system}  ${prob_MC}  ${n_MC}  ${n_GCMC}  ${iblock}  ${prob1}  ${prob2}  vol fail  ${vfactor}*${vfactor}*${vfactor}' append status.log" 		"variable	iblock equal 0" 		"variable	prob1 equal 0" 		"variable	prob2 equal 0" 		"jump		SELF MDfreqrun"



#iMDfreq Reax run
label		MDfreqrun
if		"(${MDcheck}==0)" then 		"variable 	iblock equal 5" 		"print 		'iMDfreq Reax run at imc: ${imc}'" 		"print 		'in iMDfreq block'" 		"variable	MDstp equal	${MDstp2}" else		"jump		SELF imcloop"
jump		SELF imcloop
if		"${imc} >= ${nmciter}" then "print 'End of loop'" 	"quit"
next		imc
print		"imc, pass: ${imc}, ${pass}"
imc, pass: 4, 0
variable	prob_MC equal	${rn_01}
variable	prob_MC equal	0.824336409568787
if		"${iEnsmble}!=3" then "variable iMCflag equal floor(${iMCpick}*${prob_MC})"
variable iMCflag equal floor(${iMCpick}*${prob_MC})
variable iMCflag equal floor(3*${prob_MC})
variable iMCflag equal floor(3*0.824336409568787)
print 		"prob_MC, iMCflag: ${prob_MC}, ${iMCflag}"
prob_MC, iMCflag: 0.824336409568787, 2
print 		"n_MC:${n_MC}; n_GCMC:${n_GCMC}"
n_MC:0; n_GCMC:0
variable	iblock equal	0
variable	prob1 equal	0
variable	prob2 equal	0
variable	rx string	0
variable	ry string	0
variable	rz string	0
variable	flgCoord delete
variable	flgCoord equal	0
print 		"iblock:${iblock}"
iblock:0
#run		0 pre no post no
#print		"${imc}  ${pass}  ${n_system}  ${E_system}  ${E_trial}  ${vol_system}  ${vol_GC}  ${pr_system}  ${prob_MC}  ${iMCflag}  ${n_MC}  ${n_GCMC}  ${iblock}  ${prob1}  ${prob2}  loop head" append status.log



#Displace atom block
if 		"(${iMCflag} == 0) && (${n_MC}>0)" then 		"print 		'in displace block'" 		"variable	iblock equal 1" 		"variable	nMCmoved equal	floor(${inonMC}+${rn_01}*${n_MC})+1" 		"print 		'nMCmoved is ${nMCmoved}'" 		"clear" 		"read_restart	refile" 		"group		disp id ${nMCmoved}" 		"variable	flgCoord delete" 		"variable	flgCoord python	getRandCoords" 		"python		getRandCoords input 5 1 ${nMCmoved} ${Rmin} ${Rmax} SELF return v_flgCoord format iiffpi file getcoord.py" 		"python		getRandCoords invoke"

if 		"(${iblock}==1) && (${flgCoord}==1)" 	then 		"displace_atoms	disp move ${rx} ${ry} ${rz} units box" 		"group		disp delete" 		"jump		SELF run_control" elif		"${iblock}==1" 		"print		'${imc}  ${pass}  ${n_system}  ${E_system}  ${E_system}  ${vol_system}  ${vol_GC}  ${pr_system}  ${prob_MC}  ${iMCflag}  ${n_MC}  ${n_GCMC}  ${iblock}  ${prob1}  ${prob2}  add fail getrandCoords' append status.log" 		"variable	iblock equal 0" 		"variable	prob1 equal 0" 		"variable	prob2 equal 0" 		"jump		SELF MDfreqrun"

label		iblock1
print		"iblock:${iblock}"
iblock:0
if 		"${iblock}==1" 	then 		"variable	prob1 equal	exp(-${beta}*(${E_trial}-${E_system}))" 		"variable	prob2 equal	${rn_01}" 		"print 		'beta:${beta}; E_trail:${E_trial}; E_system:${E_system};prob1:${prob1}; prob2:${prob2}'"

print		"iblock:${iblock}"
iblock:0
if 		"(${iblock}==1) && (${prob1}>${prob2})" then 		"variable	n_system equal ${n_trial}" 		"variable	E_system equal ${E_trial}" 		"variable	vol_system equal ${vol_trial}" 		"variable	pr_system equal ${pr_trial}" 		"print 		'${imc}  ${n_GCMC}  ${Pe}  ${eb}  ${ea}  ${elp}  ${emol}  ${ev}  ${epen}  ${ecoa}  ${ehb}  ${et}  ${eco}  ${ew}  ${ep}  ${efi}  ${eqeq}' append ener_comp" 		"print 		'${imc}  ${n_GCMC}  ${Pe}  ${Ke}  ${Te}  ${V}  ${Tmp}  ${P}  ${Px}  ${Py}  ${Pz}  ${Lx}  ${Ly}  ${Lz}  ${Dens}' append Thermo" 		"shell		cat dump.last >> dump.reax" 		"shell		cat bonds.last >> bonds.out" 		"shell		cat dump.strs.last >> dump.strs" 		"next		pass" 		"print		'${imc}  ${pass}  ${n_system}  ${E_system}  ${E_trial}  ${vol_system}  ${vol_GC}  ${pr_system}  ${prob_MC}  ${iMCflag}  ${n_MC}  ${n_GCMC}  ${iblock}  ${prob1}  ${prob2}  displace pass  ${nMCmoved}  ${rx}  ${ry}  ${rz}' append status.log" 		"print 		'PE is ${E_system}, total atoms are ${n_system}'" 		"print 		'${imc}  ${pass}  ${n_system}  ${E_system}  ${vol_system}  ${vol_GC}  ${pr_system}  ${prob1}  ${prob2}' append MClog" 		"write_restart	refile" 		"variable	iblock equal 0" 		"variable	prob1 equal 0" 		"variable	prob2 equal 0" 		"jump		SELF MDfreqrun" elif 		"(${iblock}==1)" 		"print		'${imc}  ${pass}  ${n_system}  ${E_system}  ${E_trial}  ${vol_system}  ${vol_GC}  ${pr_system}  ${prob_MC}  ${iMCflag}  ${n_MC}  ${n_GCMC}  ${iblock}  ${prob1}  ${prob2}  displace fail  ${nMCmoved}  ${rx}  ${ry}  ${rz}' append status.log" 		"variable	iblock equal 0" 		"variable	prob1 equal 0" 		"variable	prob2 equal 0" 		"jump		SELF MDfreqrun"



#Delete atom block
print 		"iMCflag at delete block: ${iMCflag}"
iMCflag at delete block: 2
if 		"(${iMCflag} == 1) && (${n_GCMC}>0)" then 		"print 		'in delete block'" 		"variable	iblock equal 2" 		"variable	nGCdeleted equal floor(${iMC}+${rn_01}*${n_GCMC})+1" 		"print 		'nGCdeleted trying on ${nGCdeleted}'" 		"variable	lastatom equal ${n_system}" 		"clear" 		"read_restart	refile" 		"variable	lastx equal x[${lastatom}]" 		"variable	lasty equal y[${lastatom}]" 		"variable	lastz equal z[${lastatom}]" 		"variable	lastvx equal vx[${lastatom}]" 		"variable	lastvy equal vy[${lastatom}]" 		"variable	lastvz equal vz[${lastatom}]" 		"variable	lasttyp equal type[${lastatom}]" 		"variable	tx equal ${lastx}" 		"variable	ty equal ${lasty}" 		"variable	tz equal ${lastz}" 		"variable	tvx equal ${lastvx}" 		"variable	tvy equal ${lastvy}" 		"variable	tvz equal ${lastvz}" 		"variable	ttyp equal ${lasttyp}" 		"variable	delx equal x[${nGCdeleted}]" 		"variable	dely equal y[${nGCdeleted}]" 		"variable	delz equal z[${nGCdeleted}]" 		"variable	dx equal (${tx}-${delx})" 		"variable	dy equal (${ty}-${dely})" 		"variable	dz equal (${tz}-${delz})" 		"print		'Del atom, coords: ${nGCdeleted} ${delx} ${dely} ${delz}; Last coords: ${tx} ${ty} ${tz}'" 		"print		'Last vels: ${tvx} ${tvy} ${tvz} Last type: ${ttyp}'" 		"group		del id ${lastatom}" 		"delete_atoms	group del compress no" 		"group		del delete" 		"group		delDisp id ${nGCdeleted}" 		"displace_atoms	delDisp move ${dx} ${dy} ${dz}" 		"group		delDisp delete" 		"set		atom ${nGCdeleted} vx ${tvx} vy ${tvy} vz ${tvz}" 		"set		atom ${nGCdeleted} type ${ttyp}" 		"jump		SELF run_control"

label		iblock2
print 		"iblock:${iblock}"
iblock:0
if 		"${iblock}==2" 	then 		"variable	prob1 equal	(${n_system}*(${lambda}^3)/${vol_GC})*exp(-${beta}*(${E_trial}-${E_system}+${mu}))" 		"variable	prob2 equal	${rn_01}" 		"print 		'beta:${beta}; E_trail:${E_trial}; E_system:${E_system};prob1:${prob1}; prob2:${prob2}'"

print 		"iblock:${iblock}"
iblock:0
if 		"(${iblock}==2) && (${prob1}>${prob2})" then 		"variable	n_system equal ${n_trial}" 		"variable	E_system equal ${E_trial}" 		"variable	vol_system equal ${vol_trial}" 		"variable	pr_system equal ${pr_trial}" 		"print 		'${imc}  ${n_GCMC}  ${Pe}  ${eb}  ${ea}  ${elp}  ${emol}  ${ev}  ${epen}  ${ecoa}  ${ehb}  ${et}  ${eco}  ${ew}  ${ep}  ${efi}  ${eqeq}' append ener_comp" 		"print 		'${imc}  ${n_GCMC}  ${Pe}  ${Ke}  ${Te}  ${V}  ${Tmp}  ${P}  ${Px}  ${Py}  ${Pz}  ${Lx}  ${Ly}  ${Lz}  ${Dens}' append Thermo" 		"shell		cat dump.last >> dump.reax" 		"shell		cat bonds.last >> bonds.out" 		"shell		cat dump.strs.last >> dump.strs" 		"next		pass" 		"print		'${imc}  ${pass}  ${n_system}  ${E_system}  ${E_trial}  ${vol_system}  ${vol_GC}  ${pr_system}  ${prob_MC}  ${iMCflag}  ${n_MC}  ${n_GCMC}  ${iblock}  ${prob1}  ${prob2}  delete  pass  ${nGCdeleted}' append status.log" 		"print 		'PE is ${E_system}, total atoms are ${n_system}'" 		"print 		'${imc}  ${pass}  ${n_system}  ${E_system}  ${vol_system}  ${vol_GC}  ${pr_system}  ${prob1}  ${prob2}' append MClog" 		"write_restart	refile" 		"variable	iblock equal 0" 		"variable	prob1 equal 0" 		"variable	prob2 equal 0" 		"jump		SELF MDfreqrun" elif 		"(${iblock}==2)" 		"print		'${imc}  ${pass}  ${n_system}  ${E_system}  ${E_trial}  ${vol_system}  ${vol_GC}  ${pr_system}  ${prob_MC}  ${iMCflag}  ${n_MC}  ${n_GCMC}  ${iblock}  ${prob1}  ${prob2}  delete fail  ${nGCdeleted}' append status.log" 		"variable	iblock equal 0" 		"variable	prob1 equal 0" 		"variable	prob2 equal 0" 		"jump		SELF MDfreqrun"



#Add atom block
print 		"iMCflag at add block: ${iMCflag}"
iMCflag at add block: 2
if 		"(${iMCflag} == 2)" then 		"print 		'in add block'" 		"variable	iblock equal 3" 		"clear" 		"read_restart	refile" 		"variable	flgCoord delete" 		"variable	flgCoord python	getRandCoords" 		"python		getRandCoords input 5 0 0 ${Rmin} ${Rmax} SELF return v_flgCoord format iiffpi file getcoord.py" 		"python		getRandCoords invoke"
print 		'in add block'
in add block
variable	iblock equal 3
clear
OMP_NUM_THREADS environment is not set. Defaulting to 1 thread. (src/comm.cpp:93)
  using 1 OpenMP thread(s) per MPI task
read_restart	refile
  restoring atom style charge from restart
  orthogonal box = (0 0 0) to (30.5776 30.5776 32.1891)
  2 by 3 by 4 MPI processor grid
  pair style reax/c stores no restart info
  1536 atoms
  read_restart CPU = 0.00084281 secs
variable	flgCoord delete
variable	flgCoord python	getRandCoords
python		getRandCoords input 5 0 0 ${Rmin} ${Rmax} SELF return v_flgCoord format iiffpi file getcoord.py
python		getRandCoords input 5 0 0 2 ${Rmax} SELF return v_flgCoord format iiffpi file getcoord.py
python		getRandCoords input 5 0 0 2 3 SELF return v_flgCoord format iiffpi file getcoord.py
python		getRandCoords invoke


if 		"(${iblock}==3) && (${flgCoord}==1)" 	then 		"create_atoms	${typeGC} single ${rx} ${ry} ${rz} units box" 		"variable	ncreated equal ${n_trial}" 		"print 		'ncreated is ${ncreated}'" 		"group		created id ${ncreated}" 		"variable	rvx equal (2*${rn_01}-1)*${therm_vel}*${EmMD}" 		"variable	rvy equal (2*${rn_01}-1)*${therm_vel}*${EmMD}" 		"variable	rvz equal (2*${rn_01}-1)*${therm_vel}*${EmMD}" 		"velocity	created set ${rvx} ${rvy} ${rvz}" 		"group		created delete" 		"jump		SELF run_control" elif		"${iblock}==3" 		"print		'${imc}  ${pass}  ${n_system}  ${E_system}  ${E_system}  ${vol_system}  ${vol_GC}  ${pr_system}  ${prob_MC}  ${iMCflag}  ${n_MC}  ${n_GCMC}  ${iblock}  ${prob1}  ${prob2}  add fail getrandCoords' append status.log" 		"variable	iblock equal 0" 		"variable	prob1 equal 0" 		"variable	prob2 equal 0" 		"jump		SELF MDfreqrun"
create_atoms	${typeGC} single ${rx} ${ry} ${rz} units box
create_atoms	2 single ${rx} ${ry} ${rz} units box
create_atoms	2 single 20.7554909294 ${ry} ${rz} units box
create_atoms	2 single 20.7554909294 17.5174175396 ${rz} units box
create_atoms	2 single 20.7554909294 17.5174175396 7.24632073679 units box
Created 1 atoms
  create_atoms CPU = 0.00018692 secs
variable	ncreated equal ${n_trial}
variable	ncreated equal 1537
print 		'ncreated is ${ncreated}'
ncreated is 1537
group		created id ${ncreated}
group		created id 1537
1 atoms in group created
variable	rvx equal (2*${rn_01}-1)*${therm_vel}*${EmMD}
variable	rvx equal (2*0.900953888893127-1)*${therm_vel}*${EmMD}
variable	rvx equal (2*0.900953888893127-1)*0.0103831052085002*${EmMD}
variable	rvx equal (2*0.900953888893127-1)*0.0103831052085002*1
variable	rvy equal (2*${rn_01}-1)*${therm_vel}*${EmMD}
variable	rvy equal (2*0.476537525653839-1)*${therm_vel}*${EmMD}
variable	rvy equal (2*0.476537525653839-1)*0.0103831052085002*${EmMD}
variable	rvy equal (2*0.476537525653839-1)*0.0103831052085002*1
variable	rvz equal (2*${rn_01}-1)*${therm_vel}*${EmMD}
variable	rvz equal (2*0.164832890033722-1)*${therm_vel}*${EmMD}
variable	rvz equal (2*0.164832890033722-1)*0.0103831052085002*${EmMD}
variable	rvz equal (2*0.164832890033722-1)*0.0103831052085002*1
velocity	created set ${rvx} ${rvy} ${rvz}
velocity	created set 0.00832629282426928 ${rvy} ${rvz}
velocity	created set 0.00832629282426928 -0.000487226679175853 ${rvz}
velocity	created set 0.00832629282426928 -0.000487226679175853 -0.00696015073041764
group		created delete
jump		SELF run_control
if 		"${iblock}==5" 	then  	"variable temp_filename string ${filename}"	"variable filename string control_md"
include		${filename}
include		control_md
# Control file for running ReaxFF MD on a geometry

#Force field: Define all GCMC species (including the ones not in geometry file) in the order they appear in datafile
pair_style	reax/c lmp_control safezone 1.6 mincap 100
pair_coeff	* * ffield Si Li
WARNING: VdWaals-parameters for element LI indicate inner wall+shielding, but earlier atoms indicate different vdWaals-method. This may cause division-by-zero errors. Keeping vdWaals-setting for earlier atoms. (src/USER-REAXC/reaxc_ffield.cpp:259)
WARNING: Changed valency_val to valency_boc for X (src/USER-REAXC/reaxc_ffield.cpp:315)

#Neighbor list
neighbor	2.5 bin
neigh_modify	delay 0 every 1 check yes

#Property computes
compute virial all stress/atom NULL
compute e all pair reax/c
variable eb equal c_e[1]
variable ea equal c_e[2]
variable elp equal c_e[3]
variable emol equal c_e[4]
variable ev equal c_e[5]
variable epen equal c_e[6]
variable ecoa equal c_e[7]
variable ehb equal c_e[8]
variable et equal c_e[9]
variable eco equal c_e[10]
variable ew equal c_e[11]
variable ep equal c_e[12]
variable efi equal c_e[13]
variable eqeq equal c_e[14]
variable stp equal "step"
variable Pe equal "pe"

variable Ke equal "ke"
variable Te equal "etotal"
variable V equal "vol"
variable Tmp equal "temp"
variable P equal "press"
variable Px equal "pxx"
variable Py equal "pyy"
variable Pz equal "pzz"
variable Lx equal "lx"
variable Ly equal "ly"
variable Lz equal "lz"
variable Dens equal "density"

# Energy Minimization and equilibration
fix             1 all qeq/reax 1 0.0 10.0 1.0e-6 reax/c
fix		2 all nvt temp ${Temp} ${Temp} 100.0
fix		2 all nvt temp 300 ${Temp} 100.0
fix		2 all nvt temp 300 300 100.0
Resetting global fix info from restart file:
  fix style: nvt, fix ID: 2
fix		freeze freezeatoms setforce 0 0 0
fix		5 all reax/c/bonds ${MDdmp} bonds.last
fix		5 all reax/c/bonds 200 bonds.last


thermo		${MDdmp}
thermo		200
thermo_style	custom step time pe ke etotal vol temp press pxx pyy pzz lx ly lz density c_e[1]
timestep	0.25

dump		1 all custom ${MDdmp} dump.last id type x y z fx fy fz
dump		1 all custom 200 dump.last id type x y z fx fy fz
dump            2 all custom ${MDdmp} dump.strs.last c_virial[1] c_virial[2] c_virial[3] c_virial[4] c_virial[5] c_virial[6]
dump            2 all custom 200 dump.strs.last c_virial[1] c_virial[2] c_virial[3] c_virial[4] c_virial[5] c_virial[6]

run		${MDstp}
run		200
All restart file global fix info was re-assigned
Neighbor list info ...
  update every 1 steps, delay 0 steps, check yes
  max neighbors/atom: 2000, page size: 100000
  master list distance cutoff = 12.5
  ghost atom cutoff = 12.5
  binsize = 6.25, bins = 5 5 6
  2 neighbor lists, perpetual/occasional/extra = 2 0 0
  (1) pair reax/c, perpetual
      attributes: half, newton off, ghost
      pair build: half/bin/newtoff/ghost
      stencil: half/ghost/bin/3d/newtoff
      bin: standard
  (2) fix qeq/reax, perpetual, copy from (1)
      attributes: half, newton off, ghost
      pair build: copy
      stencil: none
      bin: none
Per MPI rank memory allocation (min/avg/max) = 72.22 | 72.53 | 72.86 Mbytes
Step Time PotEng KinEng TotEng Volume Temp Press Pxx Pyy Pzz Lx Ly Lz Density c_e[1] 
   10000            0   -155949.41    1349.4253   -154599.99    30096.474     294.7293    -538.6074    2298.8426   -2743.5085   -1171.1564      30.5776      30.5776      32.1891    2.3783855   -221408.91 
   10200           50   -155953.97     1373.216   -154580.75    30096.474    299.92546   -242.91925    2643.8918   -318.17681   -3054.4728      30.5776      30.5776      32.1891    2.3783855   -221450.26 
Loop time of 2.6081 on 24 procs for 200 steps with 1537 atoms

Performance: 1.656 ns/day, 14.489 hours/ns, 76.684 timesteps/s
98.8% CPU use with 24 MPI tasks x 1 OpenMP threads

MPI task timing breakdown:
Section |  min time  |  avg time  |  max time  |%varavg| %total
---------------------------------------------------------------
Pair    | 2.1855     | 2.2672     | 2.3278     |   2.2 | 86.93
Neigh   | 0          | 0          | 0          |   0.0 |  0.00
Comm    | 0.017786   | 0.078291   | 0.16004    |  11.9 |  3.00
Output  | 0.0011292  | 0.0045409  | 0.0046899  |   1.1 |  0.17
Modify  | 0.25591    | 0.25626    | 0.25968    |   0.1 |  9.83
Other   |            | 0.001802   |            |       |  0.07

Nlocal:    64.0417 ave 70 max 48 min
Histogram: 1 0 0 1 1 1 4 6 6 4
Nghost:    2353.33 ave 2369 max 2331 min
Histogram: 1 0 1 5 2 1 6 3 2 3
Neighs:    24867 ave 27824 max 18028 min
Histogram: 1 0 1 1 0 1 6 6 5 3

Total # of neighbors = 596808
Ave neighs/atom = 388.294
Neighbor list builds = 0
Dangerous builds = 0

#fix		2 all nvt temp ${Temp} 0.01 100.0       #To be run when control_emin is used
#run		${MDstp}				#To be run when control_emin is used
#
#fix		2 all nvt temp 0.01 0.01 100.0		#To be run when control_emin is used
#run		${MDstp}				#To be run when control_emin is used

if		"(${MDdmp}!=1000) && (${imc}!=0)" then 		"shell echo dump.last | get_last" 		"shell echo dump.strs.last | get_last" 		"shell echo bonds.last | get_last"
shell echo dump.last | get_last
shell echo dump.strs.last | get_last
shell echo bonds.last | get_last

undump		1
undump		2
if 		"${iblock}==5" 	then  	"variable filename delete"			"variable filename string ${temp_filename}"
if 		"${iblock}==1" 	then  	"jump SELF iblock1" elif 		"${iblock}==2" 		"jump SELF iblock2" elif 		"${iblock}==3" 		"jump SELF iblock3" elif 		"${iblock}==4" 		"jump SELF iblock4" elif 		"${iblock}==5" 		"jump SELF iblock5"
jump SELF iblock3
print 		"iblock:${iblock}"
iblock:3
if 		"${iblock}==3" 	then 		"variable	prob1 equal	(${vol_GC}/((${n_system}+1)*(${lambda}^3)))*exp(-${beta}*(${E_trial}-${E_system}-${mu}))" 		"variable	prob2 equal	${rn_01}" 		"print 		'beta:${beta}; E_trail:${E_trial}; E_system:${E_system};prob1:${prob1}; prob2:${prob2}'"
variable	prob1 equal	(${vol_GC}/((${n_system}+1)*(${lambda}^3)))*exp(-${beta}*(${E_trial}-${E_system}-${mu}))
variable	prob1 equal	(30096.4744337948/((${n_system}+1)*(${lambda}^3)))*exp(-${beta}*(${E_trial}-${E_system}-${mu}))
variable	prob1 equal	(30096.4744337948/((1536+1)*(${lambda}^3)))*exp(-${beta}*(${E_trial}-${E_system}-${mu}))
variable	prob1 equal	(30096.4744337948/((1536+1)*(0.382585343708812^3)))*exp(-${beta}*(${E_trial}-${E_system}-${mu}))
variable	prob1 equal	(30096.4744337948/((1536+1)*(0.382585343708812^3)))*exp(-1.67739857890457*(${E_trial}-${E_system}-${mu}))
variable	prob1 equal	(30096.4744337948/((1536+1)*(0.382585343708812^3)))*exp(-1.67739857890457*(-155953.969005944-${E_system}-${mu}))
variable	prob1 equal	(30096.4744337948/((1536+1)*(0.382585343708812^3)))*exp(-1.67739857890457*(-155953.969005944--155887.229868508-${mu}))
variable	prob1 equal	(30096.4744337948/((1536+1)*(0.382585343708812^3)))*exp(-1.67739857890457*(-155953.969005944--155887.229868508--57.93))
variable	prob2 equal	${rn_01}
variable	prob2 equal	0.28598153591156
print 		'beta:${beta}; E_trail:${E_trial}; E_system:${E_system};prob1:${prob1}; prob2:${prob2}'
beta:1.67739857890457; E_trail:-155953.969005944; E_system:-155887.229868508;prob1:914072801.524043; prob2:0.28598153591156

print 		"iblock:${iblock}"
iblock:3
if 		"(${iblock}==3) && (${prob1}>${prob2})" then 		"variable	n_system equal ${n_trial}" 		"variable	E_system equal ${E_trial}" 		"variable	vol_system equal ${vol_trial}" 		"variable	pr_system equal ${pr_trial}" 		"print 		'${imc}  ${n_GCMC}  ${Pe}  ${eb}  ${ea}  ${elp}  ${emol}  ${ev}  ${epen}  ${ecoa}  ${ehb}  ${et}  ${eco}  ${ew}  ${ep}  ${efi}  ${eqeq}' append ener_comp" 		"print 		'${imc}  ${n_GCMC}  ${Pe}  ${Ke}  ${Te}  ${V}  ${Tmp}  ${P}  ${Px}  ${Py}  ${Pz}  ${Lx}  ${Ly}  ${Lz}  ${Dens}' append Thermo" 		"shell		cat dump.last >> dump.reax" 		"shell		cat bonds.last >> bonds.out" 		"shell		cat dump.strs.last >> dump.strs" 		"next		pass" 		"print		'${imc}  ${pass}  ${n_system}  ${E_system}  ${E_trial}  ${vol_system}  ${vol_GC}  ${pr_system}  ${prob_MC}  ${iMCflag}  ${n_MC}  ${n_GCMC}  ${iblock}  ${prob1}  ${prob2}  add pass  ${ncreated}  ${rx}  ${ry}  ${rz} ${rvx}  ${rvy}  ${rvz}' append status.log" 		"print 		'PE is ${E_system}, total atoms are ${n_system}'" 		"print 		'${imc}  ${pass}  ${n_system}  ${E_system}  ${vol_system}  ${vol_GC}  ${pr_system}  ${prob1}  ${prob2}' append MClog" 		"write_restart	refile" 		"variable	iblock equal 0" 		"variable	prob1 equal 0" 		"variable	prob2 equal 0" 		"jump		SELF MDfreqrun" elif 		"(${iblock}==3)" 		"print		'${imc}  ${pass}  ${n_system}  ${E_system}  ${E_trial}  ${vol_system}  ${vol_GC}  ${pr_system}  ${prob_MC}  ${iMCflag}  ${n_MC}  ${n_GCMC}  ${iblock}  ${prob1}  ${prob2}  add fail  ${ncreated}  ${rx}  ${ry}  ${rz} ${rvx}  ${rvy}  ${rvz}' append status.log" 		"variable	iblock equal 0" 		"variable	prob1 equal 0" 		"variable	prob2 equal 0" 		"jump		SELF MDfreqrun"
variable	n_system equal ${n_trial}
variable	n_system equal 1537
variable	E_system equal ${E_trial}
variable	E_system equal -155953.969005944
variable	vol_system equal ${vol_trial}
variable	vol_system equal 30096.4744337948
variable	pr_system equal ${pr_trial}
variable	pr_system equal -242.919250167631
print 		'${imc}  ${n_GCMC}  ${Pe}  ${eb}  ${ea}  ${elp}  ${emol}  ${ev}  ${epen}  ${ecoa}  ${ehb}  ${et}  ${eco}  ${ew}  ${ep}  ${efi}  ${eqeq}' append ener_comp
4  1  -155953.969005944  -221450.258097662  -5604.12143017233  0  0  21551.3649461299  0  0  0  0  0  49615.8612103541  -12.9361218168834  0  -53.8795127771341
print 		'${imc}  ${n_GCMC}  ${Pe}  ${Ke}  ${Te}  ${V}  ${Tmp}  ${P}  ${Px}  ${Py}  ${Pz}  ${Lx}  ${Ly}  ${Lz}  ${Dens}' append Thermo
4  1  -155953.969005944  1373.21599451358  -154580.753011431  30096.4744337948  299.925461456844  -242.919250167631  2643.89182918978  -318.176807567758  -3054.47277212492  30.5776  30.5776  32.1891  2.37838551956732
shell		cat dump.last >> dump.reax
shell		cat bonds.last >> bonds.out
shell		cat dump.strs.last >> dump.strs
next		pass
print		'${imc}  ${pass}  ${n_system}  ${E_system}  ${E_trial}  ${vol_system}  ${vol_GC}  ${pr_system}  ${prob_MC}  ${iMCflag}  ${n_MC}  ${n_GCMC}  ${iblock}  ${prob1}  ${prob2}  add pass  ${ncreated}  ${rx}  ${ry}  ${rz} ${rvx}  ${rvy}  ${rvz}' append status.log
4  1  1537  -155953.969005944  -155953.969005944  30096.4744337948  30096.4744337948  -242.919250167631  0.824336409568787  2  1  1  3  914072801.524043  0.28598153591156  add pass  1537  20.7554909294  17.5174175396  7.24632073679 0.00832629282426928  -0.000487226679175853  -0.00696015073041764
print 		'PE is ${E_system}, total atoms are ${n_system}'
PE is -155953.969005944, total atoms are 1537
print 		'${imc}  ${pass}  ${n_system}  ${E_system}  ${vol_system}  ${vol_GC}  ${pr_system}  ${prob1}  ${prob2}' append MClog
4  1  1537  -155953.969005944  30096.4744337948  30096.4744337948  -242.919250167631  914072801.524043  0.28598153591156
write_restart	refile
variable	iblock equal 0
variable	prob1 equal 0
variable	prob2 equal 0
jump		SELF MDfreqrun
if		"(${MDcheck}==0)" then 		"variable 	iblock equal 5" 		"print 		'iMDfreq Reax run at imc: ${imc}'" 		"print 		'in iMDfreq block'" 		"variable	MDstp equal	${MDstp2}" else		"jump		SELF imcloop"
jump		SELF imcloop
if		"${imc} >= ${nmciter}" then "print 'End of loop'" 	"quit"
next		imc
print		"imc, pass: ${imc}, ${pass}"
imc, pass: 5, 1
variable	prob_MC equal	${rn_01}
variable	prob_MC equal	0.576930642127991
if		"${iEnsmble}!=3" then "variable iMCflag equal floor(${iMCpick}*${prob_MC})"
variable iMCflag equal floor(${iMCpick}*${prob_MC})
variable iMCflag equal floor(3*${prob_MC})
variable iMCflag equal floor(3*0.576930642127991)
print 		"prob_MC, iMCflag: ${prob_MC}, ${iMCflag}"
prob_MC, iMCflag: 0.576930642127991, 1
print 		"n_MC:${n_MC}; n_GCMC:${n_GCMC}"
n_MC:1; n_GCMC:1
variable	iblock equal	0
variable	prob1 equal	0
variable	prob2 equal	0
variable	rx string	0
variable	ry string	0
variable	rz string	0
variable	flgCoord delete
variable	flgCoord equal	0
print 		"iblock:${iblock}"
iblock:0
#run		0 pre no post no
#print		"${imc}  ${pass}  ${n_system}  ${E_system}  ${E_trial}  ${vol_system}  ${vol_GC}  ${pr_system}  ${prob_MC}  ${iMCflag}  ${n_MC}  ${n_GCMC}  ${iblock}  ${prob1}  ${prob2}  loop head" append status.log



#Displace atom block
if 		"(${iMCflag} == 0) && (${n_MC}>0)" then 		"print 		'in displace block'" 		"variable	iblock equal 1" 		"variable	nMCmoved equal	floor(${inonMC}+${rn_01}*${n_MC})+1" 		"print 		'nMCmoved is ${nMCmoved}'" 		"clear" 		"read_restart	refile" 		"group		disp id ${nMCmoved}" 		"variable	flgCoord delete" 		"variable	flgCoord python	getRandCoords" 		"python		getRandCoords input 5 1 ${nMCmoved} ${Rmin} ${Rmax} SELF return v_flgCoord format iiffpi file getcoord.py" 		"python		getRandCoords invoke"

if 		"(${iblock}==1) && (${flgCoord}==1)" 	then 		"displace_atoms	disp move ${rx} ${ry} ${rz} units box" 		"group		disp delete" 		"jump		SELF run_control" elif		"${iblock}==1" 		"print		'${imc}  ${pass}  ${n_system}  ${E_system}  ${E_system}  ${vol_system}  ${vol_GC}  ${pr_system}  ${prob_MC}  ${iMCflag}  ${n_MC}  ${n_GCMC}  ${iblock}  ${prob1}  ${prob2}  add fail getrandCoords' append status.log" 		"variable	iblock equal 0" 		"variable	prob1 equal 0" 		"variable	prob2 equal 0" 		"jump		SELF MDfreqrun"

label		iblock1
print		"iblock:${iblock}"
iblock:0
[...]

print		"iblock:${iblock}"
iblock:0
if 		"(${iblock}==1) && (${prob1}>${prob2})" then 		"variable	n_system equal ${n_trial}" 		"variable	E_system equal ${E_trial}" 		"variable	vol_system equal ${vol_trial}" 		"variable	pr_system equal ${pr_trial}" 		"print 		'${imc}  ${n_GCMC}  ${Pe}  ${eb}  ${ea}  ${elp}  ${emol}  ${ev}  ${epen}  ${ecoa}  ${ehb}  ${et}  ${eco}  ${ew}  ${ep}  ${efi}  ${eqeq}' append ener_comp" 		"print 		'${imc}  ${n_GCMC}  ${Pe}  ${Ke}  ${Te}  ${V}  ${Tmp}  ${P}  ${Px}  ${Py}  ${Pz}  ${Lx}  ${Ly}  ${Lz}  ${Dens}' append Thermo" 		"shell		cat dump.last >> dump.reax" 		"shell		cat bonds.last >> bonds.out" 		"shell		cat dump.strs.last >> dump.strs" 		"next		pass" 		"print		'${imc}  ${pass}  ${n_system}  ${E_system}  ${E_trial}  ${vol_system}  ${vol_GC}  ${pr_system}  ${prob_MC}  ${iMCflag}  ${n_MC}  ${n_GCMC}  ${iblock}  ${prob1}  ${prob2}  displace pass  ${nMCmoved}  ${rx}  ${ry}  ${rz}' append status.log" 		"print 		'PE is ${E_system}, total atoms are ${n_system}'" 		"print 		'${imc}  ${pass}  ${n_system}  ${E_system}  ${vol_system}  ${vol_GC}  ${pr_system}  ${prob1}  ${prob2}' append MClog" 		"write_restart	refile" 		"variable	iblock equal 0" 		"variable	prob1 equal 0" 		"variable	prob2 equal 0" 		"jump		SELF MDfreqrun" elif 		"(${iblock}==1)" 		"print		'${imc}  ${pass}  ${n_system}  ${E_system}  ${E_trial}  ${vol_system}  ${vol_GC}  ${pr_system}  ${prob_MC}  ${iMCflag}  ${n_MC}  ${n_GCMC}  ${iblock}  ${prob1}  ${prob2}  displace fail  ${nMCmoved}  ${rx}  ${ry}  ${rz}' append status.log" 		"variable	iblock equal 0" 		"variable	prob1 equal 0" 		"variable	prob2 equal 0" 		"jump		SELF MDfreqrun"



#Delete atom block
print 		"iMCflag at delete block: ${iMCflag}"
iMCflag at delete block: 1
if 		"(${iMCflag} == 1) && (${n_GCMC}>0)" then 		"print 		'in delete block'" 		"variable	iblock equal 2" 		"variable	nGCdeleted equal floor(${iMC}+${rn_01}*${n_GCMC})+1" 		"print 		'nGCdeleted trying on ${nGCdeleted}'" 		"variable	lastatom equal ${n_system}" 		"clear" 		"read_restart	refile" 		"variable	lastx equal x[${lastatom}]" 		"variable	lasty equal y[${lastatom}]" 		"variable	lastz equal z[${lastatom}]" 		"variable	lastvx equal vx[${lastatom}]" 		"variable	lastvy equal vy[${lastatom}]" 		"variable	lastvz equal vz[${lastatom}]" 		"variable	lasttyp equal type[${lastatom}]" 		"variable	tx equal ${lastx}" 		"variable	ty equal ${lasty}" 		"variable	tz equal ${lastz}" 		"variable	tvx equal ${lastvx}" 		"variable	tvy equal ${lastvy}" 		"variable	tvz equal ${lastvz}" 		"variable	ttyp equal ${lasttyp}" 		"variable	delx equal x[${nGCdeleted}]" 		"variable	dely equal y[${nGCdeleted}]" 		"variable	delz equal z[${nGCdeleted}]" 		"variable	dx equal (${tx}-${delx})" 		"variable	dy equal (${ty}-${dely})" 		"variable	dz equal (${tz}-${delz})" 		"print		'Del atom, coords: ${nGCdeleted} ${delx} ${dely} ${delz}; Last coords: ${tx} ${ty} ${tz}'" 		"print		'Last vels: ${tvx} ${tvy} ${tvz} Last type: ${ttyp}'" 		"group		del id ${lastatom}" 		"delete_atoms	group del compress no" 		"group		del delete" 		"group		delDisp id ${nGCdeleted}" 		"displace_atoms	delDisp move ${dx} ${dy} ${dz}" 		"group		delDisp delete" 		"set		atom ${nGCdeleted} vx ${tvx} vy ${tvy} vz ${tvz}" 		"set		atom ${nGCdeleted} type ${ttyp}" 		"jump		SELF run_control"
print 		'in delete block'
in delete block
variable	iblock equal 2
variable	nGCdeleted equal floor(${iMC}+${rn_01}*${n_GCMC})+1
variable	nGCdeleted equal floor(1536+${rn_01}*${n_GCMC})+1
variable	nGCdeleted equal floor(1536+0.458274662494659*${n_GCMC})+1
variable	nGCdeleted equal floor(1536+0.458274662494659*20)+1
print 		'nGCdeleted trying on ${nGCdeleted}'
nGCdeleted trying on 1546
variable	lastatom equal ${n_system}
variable	lastatom equal 1556
clear
OMP_NUM_THREADS environment is not set. Defaulting to 1 thread. (src/comm.cpp:93)
  using 1 OpenMP thread(s) per MPI task
read_restart	refile
  restoring atom style charge from restart
  orthogonal box = (0 0 0) to (30.5776 30.5776 32.1891)
  2 by 3 by 4 MPI processor grid
  pair style reax/c stores no restart info
  1556 atoms
  read_restart CPU = 0.000765085 secs
variable	lastx equal x[${lastatom}]
variable	lastx equal x[1556]
variable	lasty equal y[${lastatom}]
variable	lasty equal y[1556]
variable	lastz equal z[${lastatom}]
variable	lastz equal z[1556]
variable	lastvx equal vx[${lastatom}]
variable	lastvx equal vx[1556]
variable	lastvy equal vy[${lastatom}]
variable	lastvy equal vy[1556]
variable	lastvz equal vz[${lastatom}]
variable	lastvz equal vz[1556]
variable	lasttyp equal type[${lastatom}]
variable	lasttyp equal type[1556]
variable	tx equal ${lastx}
variable	tx equal 1.22684872592326
variable	ty equal ${lasty}
variable	ty equal 1.76480499938691
variable	tz equal ${lastz}
variable	tz equal 14.691082497033
variable	tvx equal ${lastvx}
variable	tvx equal 0.000136075674885987
variable	tvy equal ${lastvy}
variable	tvy equal 0.00535567169348177
variable	tvz equal ${lastvz}
variable	tvz equal 0.0157877453636587
variable	ttyp equal ${lasttyp}
variable	ttyp equal 2
variable	delx equal x[${nGCdeleted}]
variable	delx equal x[1546]
variable	dely equal y[${nGCdeleted}]
variable	dely equal y[1546]
variable	delz equal z[${nGCdeleted}]
variable	delz equal z[1546]
variable	dx equal (${tx}-${delx})
variable	dx equal (1.22684872592326-${delx})
variable	dx equal (1.22684872592326-19.8951365759675)
variable	dy equal (${ty}-${dely})
variable	dy equal (1.76480499938691-${dely})
variable	dy equal (1.76480499938691-28.2302075181502)
variable	dz equal (${tz}-${delz})
variable	dz equal (14.691082497033-${delz})
variable	dz equal (14.691082497033-0.934099661772372)
print		'Del atom, coords: ${nGCdeleted} ${delx} ${dely} ${delz}; Last coords: ${tx} ${ty} ${tz}'
Del atom, coords: 1546 19.8951365759675 28.2302075181502 0.934099661772372; Last coords: 1.22684872592326 1.76480499938691 14.691082497033
print		'Last vels: ${tvx} ${tvy} ${tvz} Last type: ${ttyp}'
Last vels: 0.000136075674885987 0.00535567169348177 0.0157877453636587 Last type: 2
group		del id ${lastatom}
group		del id 1556
1 atoms in group del
delete_atoms	group del compress no
Deleted 1 atoms, new total = 1555
group		del delete
group		delDisp id ${nGCdeleted}
group		delDisp id 1546
1 atoms in group delDisp
displace_atoms	delDisp move ${dx} ${dy} ${dz}
displace_atoms	delDisp move -18.6682878500442 ${dy} ${dz}
displace_atoms	delDisp move -18.6682878500442 -26.4654025187633 ${dz}
displace_atoms	delDisp move -18.6682878500442 -26.4654025187633 13.7569828352606
group		delDisp delete
set		atom ${nGCdeleted} vx ${tvx} vy ${tvy} vz ${tvz}
set		atom 1546 vx ${tvx} vy ${tvy} vz ${tvz}
set		atom 1546 vx 0.000136075674885987 vy ${tvy} vz ${tvz}
set		atom 1546 vx 0.000136075674885987 vy 0.00535567169348177 vz ${tvz}
set		atom 1546 vx 0.000136075674885987 vy 0.00535567169348177 vz 0.0157877453636587
  1 settings made for vx
  1 settings made for vy
  1 settings made for vz
set		atom ${nGCdeleted} type ${ttyp}
set		atom 1546 type ${ttyp}
set		atom 1546 type 2
  1 settings made for type
jump		SELF run_control
if 		"${iblock}==5" 	then  	"variable temp_filename string ${filename}"	"variable filename string control_md"
include		${filename}
include		control_md
# Control file for running ReaxFF MD on a geometry

#Force field: Define all GCMC species (including the ones not in geometry file) in the order they appear in datafile
pair_style	reax/c lmp_control safezone 1.6 mincap 100
pair_coeff	* * ffield Si Li
WARNING: VdWaals-parameters for element LI indicate inner wall+shielding, but earlier atoms indicate different vdWaals-method. This may cause division-by-zero errors. Keeping vdWaals-setting for earlier atoms. (src/USER-REAXC/reaxc_ffield.cpp:259)
WARNING: Changed valency_val to valency_boc for X (src/USER-REAXC/reaxc_ffield.cpp:315)

#Neighbor list
neighbor	2.5 bin
neigh_modify	delay 0 every 1 check yes

#Property computes
compute virial all stress/atom NULL
compute e all pair reax/c
variable eb equal c_e[1]
variable ea equal c_e[2]
variable elp equal c_e[3]
variable emol equal c_e[4]
variable ev equal c_e[5]
variable epen equal c_e[6]
variable ecoa equal c_e[7]
variable ehb equal c_e[8]
variable et equal c_e[9]
variable eco equal c_e[10]
variable ew equal c_e[11]
variable ep equal c_e[12]
variable efi equal c_e[13]
variable eqeq equal c_e[14]
variable stp equal "step"
variable Pe equal "pe"

variable Ke equal "ke"
variable Te equal "etotal"
variable V equal "vol"
variable Tmp equal "temp"
variable P equal "press"
variable Px equal "pxx"
variable Py equal "pyy"
variable Pz equal "pzz"
variable Lx equal "lx"
variable Ly equal "ly"
variable Lz equal "lz"
variable Dens equal "density"

# Energy Minimization and equilibration
fix             1 all qeq/reax 1 0.0 10.0 1.0e-6 reax/c
fix		2 all nvt temp ${Temp} ${Temp} 100.0
fix		2 all nvt temp 300 ${Temp} 100.0
fix		2 all nvt temp 300 300 100.0
Resetting global fix info from restart file:
  fix style: nvt, fix ID: 2
fix		freeze freezeatoms setforce 0 0 0
fix		5 all reax/c/bonds ${MDdmp} bonds.last
fix		5 all reax/c/bonds 200 bonds.last


thermo		${MDdmp}
thermo		200
thermo_style	custom step time pe ke etotal vol temp press pxx pyy pzz lx ly lz density c_e[1]
timestep	0.25

dump		1 all custom ${MDdmp} dump.last id type x y z fx fy fz
dump		1 all custom 200 dump.last id type x y z fx fy fz
dump            2 all custom ${MDdmp} dump.strs.last c_virial[1] c_virial[2] c_virial[3] c_virial[4] c_virial[5] c_virial[6]
dump            2 all custom 200 dump.strs.last c_virial[1] c_virial[2] c_virial[3] c_virial[4] c_virial[5] c_virial[6]

run		${MDstp}
run		200
All restart file global fix info was re-assigned
Neighbor list info ...
  update every 1 steps, delay 0 steps, check yes
  max neighbors/atom: 2000, page size: 100000
  master list distance cutoff = 12.5
  ghost atom cutoff = 12.5
  binsize = 6.25, bins = 5 5 6
  2 neighbor lists, perpetual/occasional/extra = 2 0 0
  (1) pair reax/c, perpetual
      attributes: half, newton off, ghost
      pair build: half/bin/newtoff/ghost
      stencil: half/ghost/bin/3d/newtoff
      bin: standard
  (2) fix qeq/reax, perpetual, copy from (1)
      attributes: half, newton off, ghost
      pair build: copy
      stencil: none
      bin: none
Per MPI rank memory allocation (min/avg/max) = 72.98 | 73.25 | 73.56 Mbytes
Step Time PotEng KinEng TotEng Volume Temp Press Pxx Pyy Pzz Lx Ly Lz Density c_e[1] 
   23800            0   -157312.86    1421.5866   -155891.28    30096.474    306.89373    2826.3392    3883.7005    3546.4131     1048.904      30.5776      30.5776      32.1891    2.3852788   -222909.55 
   24000           50   -157224.47    1311.8272   -155912.64    30096.474    283.19874   -32.972262    6702.3054   -3094.9647   -3706.2575      30.5776      30.5776      32.1891    2.3852788    -222551.4 
Loop time of 2.7054 on 24 procs for 200 steps with 1555 atoms

Performance: 1.597 ns/day, 15.030 hours/ns, 73.926 timesteps/s
98.9% CPU use with 24 MPI tasks x 1 OpenMP threads

MPI task timing breakdown:
Section |  min time  |  avg time  |  max time  |%varavg| %total
---------------------------------------------------------------
Pair    | 2.2961     | 2.3821     | 2.4176     |   1.8 | 88.05
Neigh   | 0          | 0          | 0          |   0.0 |  0.00
Comm    | 0.018294   | 0.053594   | 0.13978    |  12.0 |  1.98
Output  | 0.001142   | 0.0045904  | 0.0047431  |   1.1 |  0.17
Modify  | 0.26287    | 0.2633     | 0.26665    |   0.1 |  9.73
Other   |            | 0.001816   |            |       |  0.07

Nlocal:    64.7917 ave 72 max 48 min
Histogram: 1 0 0 1 1 1 5 8 5 2
Nghost:    2381.54 ave 2408 max 2367 min
Histogram: 3 5 2 8 1 1 2 1 0 1
Neighs:    25438.4 ave 28959 max 18230 min
Histogram: 1 0 1 1 0 2 6 7 5 1

Total # of neighbors = 610521
Ave neighs/atom = 392.618
Neighbor list builds = 0
Dangerous builds = 0

#fix		2 all nvt temp ${Temp} 0.01 100.0       #To be run when control_emin is used
#run		${MDstp}				#To be run when control_emin is used
#
#fix		2 all nvt temp 0.01 0.01 100.0		#To be run when control_emin is used
#run		${MDstp}				#To be run when control_emin is used

if		"(${MDdmp}!=1000) && (${imc}!=0)" then 		"shell echo dump.last | get_last" 		"shell echo dump.strs.last | get_last" 		"shell echo bonds.last | get_last"
shell echo dump.last | get_last
shell echo dump.strs.last | get_last
shell echo bonds.last | get_last

undump		1
undump		2
if 		"${iblock}==5" 	then  	"variable filename delete"			"variable filename string ${temp_filename}"
if 		"${iblock}==1" 	then  	"jump SELF iblock1" elif 		"${iblock}==2" 		"jump SELF iblock2" elif 		"${iblock}==3" 		"jump SELF iblock3" elif 		"${iblock}==4" 		"jump SELF iblock4" elif 		"${iblock}==5" 		"jump SELF iblock5"
jump SELF iblock2
print 		"iblock:${iblock}"
iblock:2
if 		"${iblock}==2" 	then 		"variable	prob1 equal	(${n_system}*(${lambda}^3)/${vol_GC})*exp(-${beta}*(${E_trial}-${E_system}+${mu}))" 		"variable	prob2 equal	${rn_01}" 		"print 		'beta:${beta}; E_trail:${E_trial}; E_system:${E_system};prob1:${prob1}; prob2:${prob2}'"
variable	prob1 equal	(${n_system}*(${lambda}^3)/${vol_GC})*exp(-${beta}*(${E_trial}-${E_system}+${mu}))
variable	prob1 equal	(1556*(${lambda}^3)/${vol_GC})*exp(-${beta}*(${E_trial}-${E_system}+${mu}))
variable	prob1 equal	(1556*(0.382585343708812^3)/${vol_GC})*exp(-${beta}*(${E_trial}-${E_system}+${mu}))
variable	prob1 equal	(1556*(0.382585343708812^3)/30096.4744337948)*exp(-${beta}*(${E_trial}-${E_system}+${mu}))
variable	prob1 equal	(1556*(0.382585343708812^3)/30096.4744337948)*exp(-1.67739857890457*(${E_trial}-${E_system}+${mu}))
variable	prob1 equal	(1556*(0.382585343708812^3)/30096.4744337948)*exp(-1.67739857890457*(-157224.470486827-${E_system}+${mu}))
variable	prob1 equal	(1556*(0.382585343708812^3)/30096.4744337948)*exp(-1.67739857890457*(-157224.470486827--157385.569745995+${mu}))
variable	prob1 equal	(1556*(0.382585343708812^3)/30096.4744337948)*exp(-1.67739857890457*(-157224.470486827--157385.569745995+-57.93))
variable	prob2 equal	${rn_01}
variable	prob2 equal	0.937287986278534
print 		'beta:${beta}; E_trail:${E_trial}; E_system:${E_system};prob1:${prob1}; prob2:${prob2}'
beta:1.67739857890457; E_trail:-157224.470486827; E_system:-157385.569745995;prob1:2.01570364601583e-78; prob2:0.937287986278534

print 		"iblock:${iblock}"
iblock:2
if 		"(${iblock}==2) && (${prob1}>${prob2})" then 		"variable	n_system equal ${n_trial}" 		"variable	E_system equal ${E_trial}" 		"variable	vol_system equal ${vol_trial}" 		"variable	pr_system equal ${pr_trial}" 		"print 		'${imc}  ${n_GCMC}  ${Pe}  ${eb}  ${ea}  ${elp}  ${emol}  ${ev}  ${epen}  ${ecoa}  ${ehb}  ${et}  ${eco}  ${ew}  ${ep}  ${efi}  ${eqeq}' append ener_comp" 		"print 		'${imc}  ${n_GCMC}  ${Pe}  ${Ke}  ${Te}  ${V}  ${Tmp}  ${P}  ${Px}  ${Py}  ${Pz}  ${Lx}  ${Ly}  ${Lz}  ${Dens}' append Thermo" 		"shell		cat dump.last >> dump.reax" 		"shell		cat bonds.last >> bonds.out" 		"shell		cat dump.strs.last >> dump.strs" 		"next		pass" 		"print		'${imc}  ${pass}  ${n_system}  ${E_system}  ${E_trial}  ${vol_system}  ${vol_GC}  ${pr_system}  ${prob_MC}  ${iMCflag}  ${n_MC}  ${n_GCMC}  ${iblock}  ${prob1}  ${prob2}  delete  pass  ${nGCdeleted}' append status.log" 		"print 		'PE is ${E_system}, total atoms are ${n_system}'" 		"print 		'${imc}  ${pass}  ${n_system}  ${E_system}  ${vol_system}  ${vol_GC}  ${pr_system}  ${prob1}  ${prob2}' append MClog" 		"write_restart	refile" 		"variable	iblock equal 0" 		"variable	prob1 equal 0" 		"variable	prob2 equal 0" 		"jump		SELF MDfreqrun" elif 		"(${iblock}==2)" 		"print		'${imc}  ${pass}  ${n_system}  ${E_system}  ${E_trial}  ${vol_system}  ${vol_GC}  ${pr_system}  ${prob_MC}  ${iMCflag}  ${n_MC}  ${n_GCMC}  ${iblock}  ${prob1}  ${prob2}  delete fail  ${nGCdeleted}' append status.log" 		"variable	iblock equal 0" 		"variable	prob1 equal 0" 		"variable	prob2 equal 0" 		"jump		SELF MDfreqrun"
print		'${imc}  ${pass}  ${n_system}  ${E_system}  ${E_trial}  ${vol_system}  ${vol_GC}  ${pr_system}  ${prob_MC}  ${iMCflag}  ${n_MC}  ${n_GCMC}  ${iblock}  ${prob1}  ${prob2}  delete fail  ${nGCdeleted}' append status.log
146  40  1556  -157385.569745995  -157224.470486827  30096.4744337948  30096.4744337948  2722.8767440176  0.560372054576874  1  20  20  2  2.01570364601583e-78  0.937287986278534  delete fail  1546
variable	iblock equal 0
variable	prob1 equal 0
variable	prob2 equal 0
jump		SELF MDfreqrun
if		"(${MDcheck}==0)" then 		"variable 	iblock equal 5" 		"print 		'iMDfreq Reax run at imc: ${imc}'" 		"print 		'in iMDfreq block'" 		"variable	MDstp equal	${MDstp2}" else		"jump		SELF imcloop"
jump		SELF imcloop
if		"${imc} >= ${nmciter}" then "print 'End of loop'" 	"quit"
next		imc
print		"imc, pass: ${imc}, ${pass}"
imc, pass: 147, 40
variable	prob_MC equal	${rn_01}
variable	prob_MC equal	0.228253066539764
if		"${iEnsmble}!=3" then "variable iMCflag equal floor(${iMCpick}*${prob_MC})"
variable iMCflag equal floor(${iMCpick}*${prob_MC})
variable iMCflag equal floor(3*${prob_MC})
variable iMCflag equal floor(3*0.228253066539764)
print 		"prob_MC, iMCflag: ${prob_MC}, ${iMCflag}"
prob_MC, iMCflag: 0.228253066539764, 0
print 		"n_MC:${n_MC}; n_GCMC:${n_GCMC}"
n_MC:20; n_GCMC:20
variable	iblock equal	0
variable	prob1 equal	0
variable	prob2 equal	0
variable	rx string	0
variable	ry string	0
variable	rz string	0
variable	flgCoord delete
variable	flgCoord equal	0
print 		"iblock:${iblock}"
iblock:0
#run		0 pre no post no
#print		"${imc}  ${pass}  ${n_system}  ${E_system}  ${E_trial}  ${vol_system}  ${vol_GC}  ${pr_system}  ${prob_MC}  ${iMCflag}  ${n_MC}  ${n_GCMC}  ${iblock}  ${prob1}  ${prob2}  loop head" append status.log



#Displace atom block
if 		"(${iMCflag} == 0) && (${n_MC}>0)" then 		"print 		'in displace block'" 		"variable	iblock equal 1" 		"variable	nMCmoved equal	floor(${inonMC}+${rn_01}*${n_MC})+1" 		"print 		'nMCmoved is ${nMCmoved}'" 		"clear" 		"read_restart	refile" 		"group		disp id ${nMCmoved}" 		"variable	flgCoord delete" 		"variable	flgCoord python	getRandCoords" 		"python		getRandCoords input 5 1 ${nMCmoved} ${Rmin} ${Rmax} SELF return v_flgCoord format iiffpi file getcoord.py" 		"python		getRandCoords invoke"
print 		'in displace block'
in displace block
variable	iblock equal 1
variable	nMCmoved equal	floor(${inonMC}+${rn_01}*${n_MC})+1
variable	nMCmoved equal	floor(1536+${rn_01}*${n_MC})+1
variable	nMCmoved equal	floor(1536+0.260319590568542*${n_MC})+1
variable	nMCmoved equal	floor(1536+0.260319590568542*20)+1
print 		'nMCmoved is ${nMCmoved}'
nMCmoved is 1542
clear
OMP_NUM_THREADS environment is not set. Defaulting to 1 thread. (src/comm.cpp:93)
  using 1 OpenMP thread(s) per MPI task
read_restart	refile
  restoring atom style charge from restart
  orthogonal box = (0 0 0) to (30.5776 30.5776 32.1891)
  2 by 3 by 4 MPI processor grid
  pair style reax/c stores no restart info
  1556 atoms
  read_restart CPU = 0.000751972 secs
group		disp id ${nMCmoved}
group		disp id 1542
1 atoms in group disp
variable	flgCoord delete
variable	flgCoord python	getRandCoords
python		getRandCoords input 5 1 ${nMCmoved} ${Rmin} ${Rmax} SELF return v_flgCoord format iiffpi file getcoord.py
python		getRandCoords input 5 1 1542 ${Rmin} ${Rmax} SELF return v_flgCoord format iiffpi file getcoord.py
python		getRandCoords input 5 1 1542 2 ${Rmax} SELF return v_flgCoord format iiffpi file getcoord.py
python		getRandCoords input 5 1 1542 2 3 SELF return v_flgCoord format iiffpi file getcoord.py
python		getRandCoords invoke

if 		"(${iblock}==1) && (${flgCoord}==1)" 	then 		"displace_atoms	disp move ${rx} ${ry} ${rz} units box" 		"group		disp delete" 		"jump		SELF run_control" elif		"${iblock}==1" 		"print		'${imc}  ${pass}  ${n_system}  ${E_system}  ${E_system}  ${vol_system}  ${vol_GC}  ${pr_system}  ${prob_MC}  ${iMCflag}  ${n_MC}  ${n_GCMC}  ${iblock}  ${prob1}  ${prob2}  add fail getrandCoords' append status.log" 		"variable	iblock equal 0" 		"variable	prob1 equal 0" 		"variable	prob2 equal 0" 		"jump		SELF MDfreqrun"
displace_atoms	disp move ${rx} ${ry} ${rz} units box
displace_atoms	disp