# LAMMPS data file written by Ovito Basic 3.0.0-dev791
330 atoms
2 atom types
0.0 20.0 xlo xhi
0.0 20.0 ylo yhi
0.0 20.0 zlo zhi

Atoms  # charge

1 1 0.0 6.37874 10.0 10.0
2 1 0.0 10.0 6.37874 10.0
3 1 0.0 10.0 10.0 6.37874
4 1 0.0 10.0 10.0 10.0
5 1 0.0 10.0 10.0 13.62126
6 1 0.0 10.0 13.62126 10.0
7 1 0.0 13.62126 10.0 10.0
8 1 0.0 10.0 8.18937 8.18937
9 1 0.0 10.0 8.18937 11.81063
10 1 0.0 10.0 11.81063 8.18937
11 1 0.0 10.0 11.81063 11.81063
12 1 0.0 8.18937 10.0 8.18937
13 1 0.0 8.18937 10.0 11.81063
14 1 0.0 11.81063 10.0 8.18937
15 1 0.0 11.81063 10.0 11.81063
16 1 0.0 8.18937 8.18937 10.0
17 1 0.0 8.18937 11.81063 10.0
18 1 0.0 11.81063 8.18937 10.0
19 1 0.0 11.81063 11.81063 10.0
20 2 0.0 0.0 0.0 0.0
21 2 0.0 0.0 0.0 2.85714
22 2 0.0 0.0 0.0 5.71428
23 2 0.0 0.0 0.0 8.57142
24 2 0.0 0.0 0.0 11.4286
25 2 0.0 0.0 0.0 14.2857
26 2 0.0 0.0 0.0 17.1428
27 2 0.0 0.0 2.85714 0.0
28 2 0.0 0.0 2.85714 2.85714
29 2 0.0 0.0 2.85714 5.71428
30 2 0.0 0.0 2.85714 8.57142
31 2 0.0 0.0 2.85714 11.4286
32 2 0.0 0.0 2.85714 14.2857
33 2 0.0 0.0 2.85714 17.1428
34 2 0.0 0.0 5.71428 0.0
35 2 0.0 0.0 5.71428 2.85714
36 2 0.0 0.0 5.71428 5.71428
37 2 0.0 0.0 5.71428 8.57142
38 2 0.0 0.0 5.71428 11.4286
39 2 0.0 0.0 5.71428 14.2857
40 2 0.0 0.0 5.71428 17.1428
41 2 0.0 0.0 8.57142 0.0
42 2 0.0 0.0 8.57142 2.85714
43 2 0.0 0.0 8.57142 5.71428
44 2 0.0 0.0 8.57142 8.57142
45 2 0.0 0.0 8.57142 11.4286
46 2 0.0 0.0 8.57142 14.2857
47 2 0.0 0.0 8.57142 17.1428
48 2 0.0 0.0 11.4286 0.0
49 2 0.0 0.0 11.4286 2.85714
50 2 0.0 0.0 11.4286 5.71428
51 2 0.0 0.0 11.4286 8.57142
52 2 0.0 0.0 11.4286 11.4286
53 2 0.0 0.0 11.4286 14.2857
54 2 0.0 0.0 11.4286 17.1428
55 2 0.0 0.0 14.2857 0.0
56 2 0.0 0.0 14.2857 2.85714
57 2 0.0 0.0 14.2857 5.71428
58 2 0.0 0.0 14.2857 8.57142
59 2 0.0 0.0 14.2857 11.4286
60 2 0.0 0.0 14.2857 14.2857
61 2 0.0 0.0 14.2857 17.1428
62 2 0.0 0.0 17.1428 0.0
63 2 0.0 0.0 17.1428 2.85714
64 2 0.0 0.0 17.1428 5.71428
65 2 0.0 0.0 17.1428 8.57142
66 2 0.0 0.0 17.1428 11.4286
67 2 0.0 0.0 17.1428 14.2857
68 2 0.0 0.0 17.1428 17.1428
69 2 0.0 2.85714 0.0 0.0
70 2 0.0 2.85714 0.0 2.85714
71 2 0.0 2.85714 0.0 5.71428
72 2 0.0 2.85714 0.0 8.57142
73 2 0.0 2.85714 0.0 11.4286
74 2 0.0 2.85714 0.0 14.2857
75 2 0.0 2.85714 0.0 17.1428
76 2 0.0 2.85714 2.85714 0.0
77 2 0.0 2.85714 2.85714 2.85714
78 2 0.0 2.85714 2.85714 5.71428
79 2 0.0 2.85714 2.85714 8.57142
80 2 0.0 2.85714 2.85714 11.4286
81 2 0.0 2.85714 2.85714 14.2857
82 2 0.0 2.85714 2.85714 17.1428
83 2 0.0 2.85714 5.71428 0.0
84 2 0.0 2.85714 5.71428 2.85714
85 2 0.0 2.85714 5.71428 5.71428
86 2 0.0 2.85714 5.71428 8.57142
87 2 0.0 2.85714 5.71428 11.4286
88 2 0.0 2.85714 5.71428 14.2857
89 2 0.0 2.85714 5.71428 17.1428
90 2 0.0 2.85714 8.57142 0.0
91 2 0.0 2.85714 8.57142 2.85714
92 2 0.0 2.85714 8.57142 5.71428
93 2 0.0 2.85714 8.57142 8.57142
94 2 0.0 2.85714 8.57142 11.4286
95 2 0.0 2.85714 8.57142 14.2857
96 2 0.0 2.85714 8.57142 17.1428
97 2 0.0 2.85714 11.4286 0.0
98 2 0.0 2.85714 11.4286 2.85714
99 2 0.0 2.85714 11.4286 5.71428
100 2 0.0 2.85714 11.4286 8.57142
101 2 0.0 2.85714 11.4286 11.4286
102 2 0.0 2.85714 11.4286 14.2857
103 2 0.0 2.85714 11.4286 17.1428
104 2 0.0 2.85714 14.2857 0.0
105 2 0.0 2.85714 14.2857 2.85714
106 2 0.0 2.85714 14.2857 5.71428
107 2 0.0 2.85714 14.2857 8.57142
108 2 0.0 2.85714 14.2857 11.4286
109 2 0.0 2.85714 14.2857 14.2857
110 2 0.0 2.85714 14.2857 17.1428
111 2 0.0 2.85714 17.1428 0.0
112 2 0.0 2.85714 17.1428 2.85714
113 2 0.0 2.85714 17.1428 5.71428
114 2 0.0 2.85714 17.1428 8.57142
115 2 0.0 2.85714 17.1428 11.4286
116 2 0.0 2.85714 17.1428 14.2857
117 2 0.0 2.85714 17.1428 17.1428
118 2 0.0 5.71428 0.0 0.0
119 2 0.0 5.71428 0.0 2.85714
120 2 0.0 5.71428 0.0 5.71428
121 2 0.0 5.71428 0.0 8.57142
122 2 0.0 5.71428 0.0 11.4286
123 2 0.0 5.71428 0.0 14.2857
124 2 0.0 5.71428 0.0 17.1428
125 2 0.0 5.71428 2.85714 0.0
126 2 0.0 5.71428 2.85714 2.85714
127 2 0.0 5.71428 2.85714 5.71428
128 2 0.0 5.71428 2.85714 8.57142
129 2 0.0 5.71428 2.85714 11.4286
130 2 0.0 5.71428 2.85714 14.2857
131 2 0.0 5.71428 2.85714 17.1428
132 2 0.0 5.71428 5.71428 0.0
133 2 0.0 5.71428 5.71428 2.85714
134 2 0.0 5.71428 5.71428 5.71428
135 2 0.0 5.71428 5.71428 8.57142
136 2 0.0 5.71428 5.71428 11.4286
137 2 0.0 5.71428 5.71428 14.2857
138 2 0.0 5.71428 5.71428 17.1428
139 2 0.0 5.71428 8.57142 0.0
140 2 0.0 5.71428 8.57142 2.85714
141 2 0.0 5.71428 8.57142 5.71428
142 2 0.0 5.71428 8.57142 14.2857
143 2 0.0 5.71428 8.57142 17.1428
144 2 0.0 5.71428 11.4286 0.0
145 2 0.0 5.71428 11.4286 2.85714
146 2 0.0 5.71428 11.4286 5.71428
147 2 0.0 5.71428 11.4286 14.2857
148 2 0.0 5.71428 11.4286 17.1428
149 2 0.0 5.71428 14.2857 0.0
150 2 0.0 5.71428 14.2857 2.85714
151 2 0.0 5.71428 14.2857 5.71428
152 2 0.0 5.71428 14.2857 8.57142
153 2 0.0 5.71428 14.2857 11.4286
154 2 0.0 5.71428 14.2857 14.2857
155 2 0.0 5.71428 14.2857 17.1428
156 2 0.0 5.71428 17.1428 0.0
157 2 0.0 5.71428 17.1428 2.85714
158 2 0.0 5.71428 17.1428 5.71428
159 2 0.0 5.71428 17.1428 8.57142
160 2 0.0 5.71428 17.1428 11.4286
161 2 0.0 5.71428 17.1428 14.2857
162 2 0.0 5.71428 17.1428 17.1428
163 2 0.0 8.57142 0.0 0.0
164 2 0.0 8.57142 0.0 2.85714
165 2 0.0 8.57142 0.0 5.71428
166 2 0.0 8.57142 0.0 8.57142
167 2 0.0 8.57142 0.0 11.4286
168 2 0.0 8.57142 0.0 14.2857
169 2 0.0 8.57142 0.0 17.1428
170 2 0.0 8.57142 2.85714 0.0
171 2 0.0 8.57142 2.85714 2.85714
172 2 0.0 8.57142 2.85714 5.71428
173 2 0.0 8.57142 2.85714 8.57142
174 2 0.0 8.57142 2.85714 11.4286
175 2 0.0 8.57142 2.85714 14.2857
176 2 0.0 8.57142 2.85714 17.1428
177 2 0.0 8.57142 5.71428 0.0
178 2 0.0 8.57142 5.71428 2.85714
179 2 0.0 8.57142 5.71428 5.71428
180 2 0.0 8.57142 5.71428 14.2857
181 2 0.0 8.57142 5.71428 17.1428
182 2 0.0 8.57142 8.57142 0.0
183 2 0.0 8.57142 8.57142 2.85714
184 2 0.0 8.57142 8.57142 17.1428
185 2 0.0 8.57142 11.4286 0.0
186 2 0.0 8.57142 11.4286 2.85714
187 2 0.0 8.57142 11.4286 17.1428
188 2 0.0 8.57142 14.2857 0.0
189 2 0.0 8.57142 14.2857 2.85714
190 2 0.0 8.57142 14.2857 5.71428
191 2 0.0 8.57142 14.2857 14.2857
192 2 0.0 8.57142 14.2857 17.1428
193 2 0.0 8.57142 17.1428 0.0
194 2 0.0 8.57142 17.1428 2.85714
195 2 0.0 8.57142 17.1428 5.71428
196 2 0.0 8.57142 17.1428 8.57142
197 2 0.0 8.57142 17.1428 11.4286
198 2 0.0 8.57142 17.1428 14.2857
199 2 0.0 8.57142 17.1428 17.1428
200 2 0.0 11.4286 0.0 0.0
201 2 0.0 11.4286 0.0 2.85714
202 2 0.0 11.4286 0.0 5.71428
203 2 0.0 11.4286 0.0 8.57142
204 2 0.0 11.4286 0.0 11.4286
205 2 0.0 11.4286 0.0 14.2857
206 2 0.0 11.4286 0.0 17.1428
207 2 0.0 11.4286 2.85714 0.0
208 2 0.0 11.4286 2.85714 2.85714
209 2 0.0 11.4286 2.85714 5.71428
210 2 0.0 11.4286 2.85714 8.57142
211 2 0.0 11.4286 2.85714 11.4286
212 2 0.0 11.4286 2.85714 14.2857
213 2 0.0 11.4286 2.85714 17.1428
214 2 0.0 11.4286 5.71428 0.0
215 2 0.0 11.4286 5.71428 2.85714
216 2 0.0 11.4286 5.71428 5.71428
217 2 0.0 11.4286 5.71428 14.2857
218 2 0.0 11.4286 5.71428 17.1428
219 2 0.0 11.4286 8.57142 0.0
220 2 0.0 11.4286 8.57142 2.85714
221 2 0.0 11.4286 8.57142 17.1428
222 2 0.0 11.4286 11.4286 0.0
223 2 0.0 11.4286 11.4286 2.85714
224 2 0.0 11.4286 11.4286 17.1428
225 2 0.0 11.4286 14.2857 0.0
226 2 0.0 11.4286 14.2857 2.85714
227 2 0.0 11.4286 14.2857 5.71428
228 2 0.0 11.4286 14.2857 14.2857
229 2 0.0 11.4286 14.2857 17.1428
230 2 0.0 11.4286 17.1428 0.0
231 2 0.0 11.4286 17.1428 2.85714
232 2 0.0 11.4286 17.1428 5.71428
233 2 0.0 11.4286 17.1428 8.57142
234 2 0.0 11.4286 17.1428 11.4286
235 2 0.0 11.4286 17.1428 14.2857
236 2 0.0 11.4286 17.1428 17.1428
237 2 0.0 14.2857 0.0 0.0
238 2 0.0 14.2857 0.0 2.85714
239 2 0.0 14.2857 0.0 5.71428
240 2 0.0 14.2857 0.0 8.57142
241 2 0.0 14.2857 0.0 11.4286
242 2 0.0 14.2857 0.0 14.2857
243 2 0.0 14.2857 0.0 17.1428
244 2 0.0 14.2857 2.85714 0.0
245 2 0.0 14.2857 2.85714 2.85714
246 2 0.0 14.2857 2.85714 5.71428
247 2 0.0 14.2857 2.85714 8.57142
248 2 0.0 14.2857 2.85714 11.4286
249 2 0.0 14.2857 2.85714 14.2857
250 2 0.0 14.2857 2.85714 17.1428
251 2 0.0 14.2857 5.71428 0.0
252 2 0.0 14.2857 5.71428 2.85714
253 2 0.0 14.2857 5.71428 5.71428
254 2 0.0 14.2857 5.71428 8.57142
255 2 0.0 14.2857 5.71428 11.4286
256 2 0.0 14.2857 5.71428 14.2857
257 2 0.0 14.2857 5.71428 17.1428
258 2 0.0 14.2857 8.57142 0.0
259 2 0.0 14.2857 8.57142 2.85714
260 2 0.0 14.2857 8.57142 5.71428
261 2 0.0 14.2857 8.57142 14.2857
262 2 0.0 14.2857 8.57142 17.1428
263 2 0.0 14.2857 11.4286 0.0
264 2 0.0 14.2857 11.4286 2.85714
265 2 0.0 14.2857 11.4286 5.71428
266 2 0.0 14.2857 11.4286 14.2857
267 2 0.0 14.2857 11.4286 17.1428
268 2 0.0 14.2857 14.2857 0.0
269 2 0.0 14.2857 14.2857 2.85714
270 2 0.0 14.2857 14.2857 5.71428
271 2 0.0 14.2857 14.2857 8.57142
272 2 0.0 14.2857 14.2857 11.4286
273 2 0.0 14.2857 14.2857 14.2857
274 2 0.0 14.2857 14.2857 17.1428
275 2 0.0 14.2857 17.1428 0.0
276 2 0.0 14.2857 17.1428 2.85714
277 2 0.0 14.2857 17.1428 5.71428
278 2 0.0 14.2857 17.1428 8.57142
279 2 0.0 14.2857 17.1428 11.4286
280 2 0.0 14.2857 17.1428 14.2857
281 2 0.0 14.2857 17.1428 17.1428
282 2 0.0 17.1428 0.0 0.0
283 2 0.0 17.1428 0.0 2.85714
284 2 0.0 17.1428 0.0 5.71428
285 2 0.0 17.1428 0.0 8.57142
286 2 0.0 17.1428 0.0 11.4286
287 2 0.0 17.1428 0.0 14.2857
288 2 0.0 17.1428 0.0 17.1428
289 2 0.0 17.1428 2.85714 0.0
290 2 0.0 17.1428 2.85714 2.85714
291 2 0.0 17.1428 2.85714 5.71428
292 2 0.0 17.1428 2.85714 8.57142
293 2 0.0 17.1428 2.85714 11.4286
294 2 0.0 17.1428 2.85714 14.2857
295 2 0.0 17.1428 2.85714 17.1428
296 2 0.0 17.1428 5.71428 0.0
297 2 0.0 17.1428 5.71428 2.85714
298 2 0.0 17.1428 5.71428 5.71428
299 2 0.0 17.1428 5.71428 8.57142
300 2 0.0 17.1428 5.71428 11.4286
301 2 0.0 17.1428 5.71428 14.2857
302 2 0.0 17.1428 5.71428 17.1428
303 2 0.0 17.1428 8.57142 0.0
304 2 0.0 17.1428 8.57142 2.85714
305 2 0.0 17.1428 8.57142 5.71428
306 2 0.0 17.1428 8.57142 8.57142
307 2 0.0 17.1428 8.57142 11.4286
308 2 0.0 17.1428 8.57142 14.2857
309 2 0.0 17.1428 8.57142 17.1428
310 2 0.0 17.1428 11.4286 0.0
311 2 0.0 17.1428 11.4286 2.85714
312 2 0.0 17.1428 11.4286 5.71428
313 2 0.0 17.1428 11.4286 8.57142
314 2 0.0 17.1428 11.4286 11.4286
315 2 0.0 17.1428 11.4286 14.2857
316 2 0.0 17.1428 11.4286 17.1428
317 2 0.0 17.1428 14.2857 0.0
318 2 0.0 17.1428 14.2857 2.85714
319 2 0.0 17.1428 14.2857 5.71428
320 2 0.0 17.1428 14.2857 8.57142
321 2 0.0 17.1428 14.2857 11.4286
322 2 0.0 17.1428 14.2857 14.2857
323 2 0.0 17.1428 14.2857 17.1428
324 2 0.0 17.1428 17.1428 0.0
325 2 0.0 17.1428 17.1428 2.85714
326 2 0.0 17.1428 17.1428 5.71428
327 2 0.0 17.1428 17.1428 8.57142
328 2 0.0 17.1428 17.1428 11.4286
329 2 0.0 17.1428 17.1428 14.2857
330 2 0.0 17.1428 17.1428 17.1428
