#Input file for lammps
 
4050 atoms
3 atom types
 
0.0 175.5 xlo xhi
0.0 175.5 ylo yhi
0.0 175.5 zlo zhi
 
Masses
 
1 14
2 12
3 1.008
 
Atoms
 
      1 1 0      92.9799      77.1482      120.542
      2 2 0      92.6596      76.7552      119.049
      3 2 0      92.5352      75.3612      119.083
      4 2 0      92.7429      74.8594      120.427
      5 2 0      92.9955      75.9712      121.207
      6 3 0      92.3144      74.7415      118.227
      7 3 0      92.7072      73.8273       120.75
      8 3 0      93.1963      75.9573      122.272
      9 3 0      93.1554      78.1874      120.951
     10 1 0      92.2259      77.1947      116.544
     11 2 0       92.525      77.5711      117.936
     12 2 0      92.6505      79.0038      117.889
     13 2 0       92.445      79.4703      116.577
     14 2 0      92.1749      78.3643      115.699
     15 3 0      92.8704      79.6329      118.738
     16 3 0      92.4851      80.5074      116.277
     17 3 0      92.0592      76.1426       116.19
     18 1 0      91.8635      79.6192      113.449
     19 2 0      91.5663      79.2296      112.077
     20 2 0      91.4418      77.8036      112.118
     21 2 0      91.6498      77.3399      113.438
     22 2 0      91.9178      78.4456      114.307
     23 3 0      91.2218      77.1721       111.27
     24 3 0       91.611      76.3038      113.741
     25 3 0      92.0283      80.6759      113.795
     26 1 0      91.1276      79.6387       109.56
     27 2 0      91.4229      80.0402      110.926
     28 2 0      91.5437      81.4674       110.87
     29 2 0      91.3351      81.9177      109.547
     30 2 0      91.0699      80.8032      108.685
     31 3 0      91.7617      82.1076      111.711
     32 3 0      91.3715      82.9499      109.233
     33 3 0      90.9679      78.5791      109.222
     34 1 0      90.7553      82.0275      106.403
     35 2 0      90.4724      81.5976      105.069
     36 2 0      90.3531      80.1826      105.114
     37 2 0      90.5584      79.7397      106.451
     38 2 0      90.8156      80.8555      107.299
     39 3 0      90.1409      79.5412      104.271
     40 3 0      90.5249      78.7087       106.77
     41 3 0      90.9164      83.0964      106.718
     42 1 0      90.0376      81.8256      102.536
     43 2 0      90.3227      82.3923      103.858
     44 2 0      90.4561      83.8414      103.913
     45 2 0      90.2431      84.2845      102.618
     46 2 0      89.9918      83.0817      101.844
     47 3 0      90.6688      84.4502      104.776
     48 3 0      90.2564      85.3054      102.271
     49 3 0      89.7551      80.7805      102.219
     50 1 0      89.6545      84.4907      99.6847
     51 2 0      89.4075      83.9274      98.3725
     52 2 0      89.2777      82.4919      98.3002
     53 2 0      89.4696      82.0388      99.6043
     54 2 0      89.7066      83.2268      100.388
     55 3 0      89.0837       81.888      97.4276
     56 3 0      89.4556      81.0141      99.9425
     57 3 0      89.9911      85.5234      99.9918
     58 1 0      89.0455      84.1537      95.8122
     59 2 0      89.2763      84.7251      97.1236
     60 2 0      89.3676      86.1634      97.1998
     61 2 0      89.1375      86.6155      95.9015
     62 2 0      88.9292      85.4236      95.1143
     63 3 0      89.5513      86.7703      98.0726
     64 3 0      89.1069      87.6416      95.5685
     65 3 0      88.6057      83.1512      95.5395
     66 1 0      88.5027      86.8408      92.9762
     67 2 0      88.3134      86.2535      91.6508
     68 2 0      88.2463      84.8166      91.5753
     69 2 0      88.4412      84.3693      92.8828
     70 2 0      88.6191      85.5616        93.67
     71 3 0      88.1059      84.2069      90.6958
     72 3 0      88.4783      83.3433      93.2161
     73 3 0      89.1777      87.7222      93.1768
     74 1 0      87.9986      86.4438      89.0774
     75 2 0      88.2047      87.0344       90.397
     76 2 0      88.2937      88.4713      90.4648
     77 2 0      88.0949      88.9157      89.1582
     78 2 0      87.8984      87.7214      88.3761
     79 3 0       88.458      89.0833      91.3378
     80 3 0      88.0693      89.9399      88.8191
     81 3 0      87.3266       85.559      88.8805
     82 1 0      87.4967      89.1364      86.2324
     83 2 0      87.2776      88.5491      84.9143
     84 2 0       87.189      87.1115      84.8446
     85 2 0      87.3921      86.6664      86.1498
     86 2 0      87.5967      87.8601      86.9323
     87 3 0      87.0233      86.5007      83.9702
     88 3 0      87.4114      85.6425       86.488
     89 3 0      88.1372      90.0411      86.4388
     90 1 0      86.9268      88.7448       82.345
     91 2 0      87.1474      89.3316      83.6634
     92 2 0      87.2331      90.7689      83.7355
     93 2 0      87.0212      91.2162      82.4324
     94 2 0      86.8188      90.0232      81.6479
     95 3 0      87.4025      91.3789      84.6096
     96 3 0      86.9951      92.2412      82.0955
     97 3 0      86.2701      87.8513      82.1374
     98 1 0      86.4041      91.4417      79.5078
     99 2 0      86.1998      90.8507      78.1869
    100 2 0      86.1141      89.4129      78.1173
    101 2 0       86.317      88.9685      79.4227
    102 2 0      86.5118      90.1626      80.2064
    103 3 0      85.9523      88.8013      77.2431
    104 3 0       86.347      87.9445      79.7612
    105 3 0       87.082      92.3243      79.6965
    106 1 0      85.8908      91.0458      75.6125
    107 2 0      86.0938      91.6333      76.9353
    108 2 0      86.1818      93.0708      77.0085
    109 2 0      85.9787      93.5193      75.7049
    110 2 0      85.7799      92.3273      74.9183
    111 3 0      86.3423      93.6796      77.8851
    112 3 0      85.9507      94.5447      75.3698
    113 3 0      85.2117      90.1679      75.4096
    114 1 0      85.3456      93.7463      72.7839
    115 2 0      85.1373      93.1581      71.4632
    116 2 0      85.0499      91.7203      71.3924
    117 2 0      85.2615      91.2733      72.6952
    118 2 0      85.4619       92.467      73.4797
    119 3 0      84.8854      91.1105      70.5178
    120 3 0      85.2958      90.2487      73.0317
    121 3 0      86.0121      94.6356      72.9791
    122 1 0      84.8307      93.3571      68.8884
    123 2 0        85.03      93.9424      70.2123
    124 2 0      85.1141        95.38      70.2885
    125 2 0      84.9171      95.8293      68.9839
    126 2 0      84.7212      94.6382      68.1951
    127 3 0      85.2686      95.9859       71.167
    128 3 0      84.8887      96.8546      68.6499
    129 3 0      84.1616      92.4709       68.687
    130 1 0       84.286      96.0583      66.0596
    131 2 0      84.0772      95.4671      64.7388
    132 2 0      84.0004      94.0292       64.668
    133 2 0      84.2162      93.5841      65.9712
    134 2 0      84.4071      94.7789      66.7554
    135 3 0      83.8398      93.4173      63.7935
    136 3 0      84.2553      92.5598      66.3078
    137 3 0       84.963      96.9403      66.2541
    138 1 0      83.7556      95.6583      62.1652
    139 2 0      83.9592      96.2485      63.4876
    140 2 0      84.0361      97.6861       63.561
    141 2 0      83.8365      98.1325      62.2557
    142 2 0      83.6486      96.9394      61.4687
    143 3 0      84.1915      98.2965      64.4376
    144 3 0      83.8056      99.1577      61.9212
    145 3 0       83.075      94.7794       61.973
    146 1 0      83.2406      98.3639      59.3317
    147 2 0      83.0319      97.7763        58.01
    148 2 0      82.9547      96.3387      57.9351
    149 2 0      83.1591      95.8897      59.2388
    150 2 0      83.3489       97.082      60.0267
    151 3 0      82.7976      95.7313      57.0572
    152 3 0       83.192      94.8646      59.5736
    153 3 0      83.9213      99.2407      59.5315
    154 1 0      82.6993      97.9651      55.4383
    155 2 0      82.9075      98.5569      56.7585
    156 2 0      82.9843      99.9946      56.8288
    157 2 0      82.7767      100.439      55.5238
    158 2 0      82.5882      99.2445      54.7396
    159 3 0      83.1412      100.607      57.7033
    160 3 0      82.7426      101.463       55.186
    161 3 0       82.023      97.0824      55.2476
    162 3 0      82.3733      99.3205      53.6737
    163 1 0      103.263      26.6215       156.58
    164 2 0      103.875      28.0726      156.649
    165 2 0      102.841       28.853      157.181
    166 2 0      101.668      28.0434      157.443
    167 2 0      102.007      26.7593      157.062
    168 3 0      102.906      29.9141       157.37
    169 3 0      100.724       28.377      157.852
    170 3 0      101.356      25.8945      157.124
    171 3 0      103.771      25.6831      156.207
    172 1 0      105.701      29.8702      156.349
    173 2 0      105.138      28.5118       156.28
    174 2 0      106.207      27.7187      155.734
    175 2 0      107.335      28.5236      155.487
    176 2 0      107.059      29.8842       155.86
    177 3 0      106.154      26.6588      155.541
    178 3 0       108.27      28.1677      155.078
    179 3 0       105.15      30.7709       156.73
    180 1 0      109.326      30.9999      155.266
    181 2 0      109.868      32.3507       155.34
    182 2 0      108.806      33.1436      155.883
    183 2 0      107.675      32.3309      156.128
    184 2 0      107.956      30.9773      155.755
    185 3 0      108.857      34.2047      156.077
    186 3 0      106.739      32.6841      156.537
    187 3 0      109.885      30.1036      154.883
    188 1 0      111.679      34.1751      155.051
    189 2 0       111.15      32.8232      154.972
    190 2 0      112.222      32.0415       154.43
    191 2 0      113.345      32.8644      154.188
    192 2 0      113.052      34.2169      154.563
    193 3 0      112.182      30.9807      154.234
    194 3 0      114.284      32.5227      153.781
    195 3 0      111.111       35.067      155.431
    196 1 0      115.313      35.3763      153.973
    197 2 0      115.799      36.7187      154.055
    198 2 0      114.742      37.5024       154.59
    199 2 0      113.618      36.6644      154.836
    200 2 0      113.922      35.3221      154.465
    201 3 0      114.779       38.565      154.781
    202 3 0      112.676      37.0004      155.242
    203 3 0        115.9      34.4985      153.583
    204 1 0      117.479      38.6615      153.811
    205 2 0      117.103      37.2499      153.684
    206 2 0      118.128      36.3646      153.149
    207 2 0      119.232      37.1694       152.92
    208 2 0       118.82      38.5006      153.327
    209 3 0      118.054      35.3044      152.971
    210 3 0      120.189      36.8616      152.529
    211 3 0      116.956      39.5297      154.306
    212 1 0      121.166       39.454      152.733
    213 2 0      121.525      40.8549      152.825
    214 2 0      120.518      41.7463      153.349
    215 2 0      119.409      40.9407      153.603
    216 2 0       119.81      39.6097      153.215
    217 3 0      120.594       42.811      153.506
    218 3 0      118.454      41.2576      153.993
    219 3 0      121.664      38.5999      152.188
    220 1 0      123.191      42.8194      152.508
    221 2 0      122.844      41.4149      152.427
    222 2 0      123.866      40.5194      151.939
    223 2 0      124.985      41.3215      151.723
    224 2 0      124.572      42.6568      152.084
    225 3 0      123.796       39.453      151.792
    226 3 0      125.955      41.0005      151.375
    227 3 0      122.736        43.63      153.147
    228 1 0      126.946      43.5897      151.575
    229 2 0      127.272       45.014      151.618
    230 2 0      126.243      45.9077      152.083
    231 2 0      125.135      45.0961      152.333
    232 2 0       125.56      43.7611          152
    233 3 0      126.298      46.9804       152.19
    234 3 0      124.163      45.4167      152.676
    235 3 0       127.26      42.9033      150.736
    236 1 0      128.901      47.0093      151.264
    237 2 0      128.573      45.5875      151.203
    238 2 0      129.599      44.6997      150.716
    239 2 0      130.705      45.5123       150.47
    240 2 0      130.283      46.8446      150.823
    241 3 0       129.54      43.6305      150.584
    242 3 0      131.675      45.1973      150.117
    243 3 0      128.581      47.6946      152.102
    244 1 0      132.649      47.7829       150.29
    245 2 0      132.983       49.202      150.362
    246 2 0      131.958      50.0917      150.849
    247 2 0       130.85      49.2804       151.09
    248 2 0      131.268       47.948      150.731
    249 3 0      132.018      51.1613      150.981
    250 3 0      129.883      49.5961      151.449
    251 3 0       132.99      47.0791      149.478
    252 1 0      134.626      51.1914      150.041
    253 2 0      134.291      49.7723      149.967
    254 2 0      135.316      48.8808      149.484
    255 2 0      136.427      49.6893      149.251
    256 2 0       136.01      51.0229      149.607
    257 3 0      135.254      47.8119      149.349
    258 3 0      137.397       49.372      148.898
    259 3 0        134.3        51.89      150.864
    260 1 0      138.381      51.9565      149.086
    261 2 0      138.708      53.3797      149.146
    262 2 0      137.682      54.2694       149.63
    263 2 0      136.575      53.4575      149.871
    264 2 0      136.996      52.1241      149.521
    265 3 0       137.74      55.3392      149.758
    266 3 0      135.604      53.7729       150.22
    267 3 0      138.702      51.2791      148.242
    268 1 0      140.339      55.3728      148.785
    269 2 0      140.008      53.9501      148.728
    270 2 0      141.032      53.0576      148.243
    271 2 0      142.141      53.8656      148.001
    272 2 0      141.725      55.2003      148.354
    273 3 0       140.97      51.9874      148.117
    274 3 0       143.11      53.5466       147.65
    275 3 0       140.03      56.0591      149.625
    276 1 0        144.1      56.1294      147.852
    277 2 0      144.431      57.5507      147.914
    278 2 0      143.406      58.4415        148.4
    279 2 0      142.295      57.6331      148.633
    280 2 0      142.713      56.2991      148.278
    281 3 0      143.467      59.5106       148.53
    282 3 0      141.323      57.9504      148.978
    283 3 0      144.426       55.443      147.018
    284 1 0      146.063      59.5419       147.55
    285 2 0      145.732      58.1197      147.497
    286 2 0      146.756      57.2247      147.016
    287 2 0      147.864       58.033      146.768
    288 2 0      147.448      59.3688      147.117
    289 3 0      146.693      56.1548      146.897
    290 3 0      148.833      57.7131      146.418
    291 3 0      145.744      60.2316      148.384
    292 1 0      149.825      60.2982      146.616
    293 2 0      150.154      61.7214       146.68
    294 2 0      149.125       62.612      147.155
    295 2 0      148.014      61.8021      147.384
    296 2 0      148.436       60.468      147.037
    297 3 0      149.183      63.6822      147.283
    298 3 0       147.04      62.1191      147.725
    299 3 0      150.143      59.6163      145.774
    300 1 0      151.786      63.7163      146.332
    301 2 0      151.457      62.2925      146.274
    302 2 0      152.485      61.3999      145.798
    303 2 0      153.592      62.2104      145.554
    304 2 0      153.171      63.5459      145.896
    305 3 0      152.427       60.329      145.677
    306 3 0      154.562      61.8912      145.206
    307 3 0      151.471      64.3946      147.176
    308 1 0      155.542      64.4734      145.368
    309 2 0      155.874      65.8953       145.43
    310 2 0      154.848      66.7891      145.905
    311 2 0      153.737      65.9813      146.146
    312 2 0      154.157      64.6455      145.802
    313 3 0      154.909      67.8594      146.027
    314 3 0      152.767      66.3002      146.492
    315 3 0      155.851      63.7903      144.526
    316 1 0      157.507      67.8903      145.094
    317 2 0      157.179      66.4672       145.03
    318 2 0      158.209      65.5772      144.555
    319 2 0      159.317      66.3886      144.318
    320 2 0      158.894      67.7227      144.662
    321 3 0      158.153      64.5065       144.43
    322 3 0      160.289      66.0727      143.972
    323 3 0      157.187      68.5693      145.936
    324 3 0      159.598      68.5523      144.595
    325 1 0      79.8188      49.8225      126.559
    326 2 0      79.8479       51.061      125.584
    327 2 0      79.3711      52.1204      126.365
    328 2 0      79.0546      51.6692      127.705
    329 2 0       79.347      50.3191      127.724
    330 3 0       79.254      53.1366      126.019
    331 3 0      78.6692      52.2671       128.52
    332 3 0      79.2263      49.6635      128.579
    333 3 0      80.1268      48.7605      126.322
    334 1 0      80.2694      52.2872      123.353
    335 2 0       80.246       51.125      124.256
    336 2 0      80.7376      50.0433      123.445
    337 2 0       81.039      50.5028      122.149
    338 2 0      80.7589      51.9092      122.048
    339 3 0       80.859       49.025       123.78
    340 3 0       81.424      49.8864      121.349
    341 3 0      79.9515      53.3249       123.64
    342 1 0      81.4318      52.3446       119.58
    343 2 0       81.449      53.5054      118.699
    344 2 0       80.959      54.5844      119.503
    345 2 0      80.6571      54.1177      120.804
    346 2 0      80.9385       52.717      120.898
    347 3 0      80.8368      55.6044       119.17
    348 3 0      80.2714      54.7314      121.605
    349 3 0      81.7528      51.3089      119.284
    350 1 0      81.8614      54.7622      116.476
    351 2 0      81.8504      53.5971      117.346
    352 2 0      82.3434      52.5268       116.53
    353 2 0        82.64      53.0051      115.234
    354 2 0      82.3528      54.4072       115.15
    355 3 0      82.4707      51.5046      116.853
    356 3 0      83.0254      52.4014      114.426
    357 3 0       81.535      55.7939      116.779
    358 1 0      83.0137      54.8841      112.672
    359 2 0      83.0033      56.0479      111.842
    360 2 0      82.5136      57.1149      112.642
    361 2 0      82.2238      56.6248      113.946
    362 2 0       82.518      55.2322      114.019
    363 3 0      82.3803      58.1364      112.316
    364 3 0      81.8367      57.2232      114.757
    365 3 0      83.3413      53.8581      112.344
    366 1 0      83.3343      57.4463      109.699
    367 2 0         83.4      56.1872      110.447
    368 2 0      83.8977      55.0344       109.71
    369 2 0       84.197      55.5047      108.441
    370 2 0      83.8653      56.9178      108.475
    371 3 0      84.0178      54.0256      110.069
    372 3 0      84.5964      54.9365      107.617
    373 3 0      83.1263      58.5027      110.035
    374 1 0      84.6326      57.1994      106.006
    375 2 0      84.5347      58.4359      105.257
    376 2 0      84.0384      59.5868      105.972
    377 2 0      83.7544      59.1272      107.257
    378 2 0      84.0934      57.7247      107.243
    379 3 0      83.9027      60.5899      105.599
    380 3 0      83.3535      59.7032      108.077
    381 3 0      84.7859      56.1367      105.658
    382 1 0      84.7975      59.8224      103.078
    383 2 0      84.9134      58.5867      103.826
    384 2 0       85.446      57.4464       103.12
    385 2 0      85.7644      57.9181      101.847
    386 2 0      85.3976      59.3142      101.856
    387 3 0      85.5922      56.4449      103.493
    388 3 0      86.2065      57.3555      101.039
    389 3 0      84.7524      60.8836      103.459
    390 1 0      86.2503      59.6123      99.4172
    391 2 0      86.0893      60.8515      98.6585
    392 2 0      85.5355      61.9811      99.3601
    393 2 0      85.2514      61.5143      100.644
    394 2 0      85.6459      60.1296      100.641
    395 3 0      85.3486      62.9717      98.9744
    396 3 0      84.8035      62.0742      101.451
    397 3 0      86.0271      58.5898      98.9959
    398 1 0      86.2933      62.2539       96.479
    399 2 0      86.4403      61.0089      97.2281
    400 2 0      86.9738      59.8752       96.516
    401 2 0      87.2601      60.3451      95.2349
    402 2 0       86.882      61.7356      95.2466
    403 3 0      87.1396      58.8772      96.8906
    404 3 0      87.6965      59.7853       94.422
    405 3 0      86.5126      63.2756      96.9048
    406 1 0       87.711      62.0288      92.8001
    407 2 0      87.5772      63.2756      92.0529
    408 2 0       87.043      64.4107      92.7637
    409 2 0      86.7524      63.9404      94.0433
    410 2 0       87.123       62.547      94.0307
    411 3 0      86.8789      65.4091      92.3877
    412 3 0      86.3217      64.5029      94.8564
    413 3 0      87.5291      60.9993      92.3778
    414 1 0      87.8164      64.6855      89.8809
    415 2 0      87.9485      63.4384      90.6283
    416 2 0      88.4855      62.3032      89.9201
    417 2 0      88.7851      62.7741      88.6429
    418 2 0      88.4127      64.1672      88.6529
    419 3 0       88.646      61.3041      90.2957
    420 3 0      89.2225      62.2127      87.8314
    421 3 0      88.0175      65.7136      90.2994
    422 1 0      89.2552      64.4609        86.21
    423 2 0      89.1064      65.7062      85.4596
    424 2 0      88.5695      66.8404      86.1702
    425 2 0      88.2793      66.3694      87.4496
    426 2 0       88.659      64.9789      87.4395
    427 3 0      88.4014      67.8377      85.7939
    428 3 0      87.8389      66.9278       88.261
    429 3 0      89.0291      63.4431      85.7776
    430 1 0      89.3071      67.1033      83.2759
    431 2 0      89.4559        65.86      84.0299
    432 2 0      89.9908      64.7232      83.3221
    433 2 0       90.283      65.1902      82.0421
    434 2 0      89.9076      66.5824      82.0492
    435 3 0       90.159      63.7271       83.702
    436 3 0      90.7224      64.6282      81.2324
    437 3 0      89.5355      68.1259      83.6943
    438 1 0      90.7684      66.8801      79.6145
    439 2 0      90.6243      68.1247      78.8637
    440 2 0      90.0889      69.2602      79.5734
    441 2 0      89.7896      68.7893      80.8504
    442 2 0      90.1641      67.3964      80.8403
    443 3 0       89.924      70.2575      79.1965
    444 3 0      89.3449      69.3475      81.6597
    445 3 0      90.5558      65.8581      79.1861
    446 1 0      90.8246      69.5182      76.6771
    447 2 0      90.9758      68.2774      77.4338
    448 2 0      91.5145      67.1403      76.7292
    449 2 0      91.8014      67.6049      75.4467
    450 2 0      91.4237      68.9965      75.4511
    451 3 0      91.6869      66.1476      77.1133
    452 3 0      92.2411      67.0425      74.6381
    453 3 0      91.0404      70.5423      77.0991
    454 1 0      92.2857      69.2943       73.015
    455 2 0      92.1408      70.5415      72.2657
    456 2 0      91.5957      71.6729      72.9736
    457 2 0      91.2934      71.1988      74.2491
    458 2 0       91.677      69.8089      74.2399
    459 3 0      91.4264      72.6702      72.5971
    460 3 0      90.8446      71.7549      75.0574
    461 3 0      92.0605       68.274      72.5879
    462 1 0      92.3513      71.9457       70.087
    463 2 0      92.5006      70.7006      70.8391
    464 2 0      93.0456      69.5678      70.1335
    465 2 0      93.3337      70.0359      68.8526
    466 2 0      92.9479      71.4249       68.858
    467 3 0      93.2191      68.5725      70.5136
    468 3 0      93.7756      69.4749       68.044
    469 3 0      92.5812      72.9639      70.5151
    470 1 0      93.7871      71.7099      66.4132
    471 2 0      93.6437      72.9548      65.6612
    472 2 0      93.0988      74.0885      66.3656
    473 2 0      92.8053      73.6214      67.6457
    474 2 0       93.189      72.2316      67.6411
    475 3 0      92.9281      75.0829      65.9833
    476 3 0      92.3616      74.1813      68.4541
    477 3 0      93.5567      70.6891      65.9924
    478 1 0      93.8632      74.3641      63.4874
    479 2 0      94.0089      73.1171       64.236
    480 2 0      94.5539      71.9861      63.5279
    481 2 0      94.8484      72.4584      62.2495
    482 2 0      94.4627      73.8472      62.2582
    483 3 0      94.7269      70.9896      63.9046
    484 3 0      95.2926      71.9013      61.4394
    485 3 0      94.0878      75.3825       63.918
    486 3 0      94.6224      74.4627      61.3729
    487 1 0      119.721      57.5976      140.359
    488 2 0      118.603       58.707      140.292
    489 2 0       117.53      58.0705      139.657
    490 2 0      117.866      56.6998       139.33
    491 2 0       119.16      56.5146      139.776
    492 3 0       116.58      58.5352       139.44
    493 3 0      117.233      55.9728      138.838
    494 3 0      119.728      55.5948       139.69
    495 3 0      120.758      57.6988        140.8
    496 1 0      117.588      61.0471      140.678
    497 2 0      118.638      60.0175      140.745
    498 2 0      119.735      60.6809      141.399
    499 2 0      119.388      62.0098      141.708
    500 2 0      118.045      62.2812      141.272
    501 3 0      120.688      60.2271      141.621
    502 3 0      120.037      62.7185      142.201
    503 3 0      116.571       60.893      140.228
    504 1 0      117.806      64.7573      142.011
    505 2 0      116.756      65.7651      141.936
    506 2 0      115.662      65.1087      141.285
    507 2 0      116.016      63.7746      140.976
    508 2 0      117.353      63.5103      141.413
    509 3 0      114.707      65.5612      141.062
    510 3 0      115.369      63.0644      140.482
    511 3 0      118.821      64.9205      142.464
    512 1 0      115.711      68.1017      142.309
    513 2 0      116.766      67.1047      142.391
    514 2 0      117.852      67.7739      143.044
    515 2 0      117.486       69.105      143.347
    516 2 0      116.147      69.3594      142.903
    517 3 0      118.809      67.3304      143.273
    518 3 0      118.124      69.8232      143.839
    519 3 0      114.699      67.9315       141.85
    520 1 0      115.869      71.8503      143.626
    521 2 0      114.814      72.8096      143.521
    522 2 0      113.733      72.1558      142.872
    523 2 0      114.108      70.8153      142.577
    524 2 0      115.438      70.5718      143.027
    525 3 0      112.777       72.601      142.637
    526 3 0      113.475      70.0927      142.083
    527 3 0      116.878      72.0461      144.086
    528 1 0       113.63       75.086      143.793
    529 2 0      114.782      74.1953      143.967
    530 2 0       115.94      74.7769      144.631
    531 2 0      115.579      76.0796      144.936
    532 2 0      114.222      76.2209      144.441
    533 3 0      116.881      74.3001       144.85
    534 3 0      116.182      76.8186      145.439
    535 3 0      112.576      74.8811      143.447
    536 1 0      114.123      78.6764      145.291
    537 2 0      112.997      79.5664      145.088
    538 2 0      111.843      79.0066      144.426
    539 2 0       112.19      77.6883      144.134
    540 2 0      113.534       77.529      144.634
    541 3 0      110.911      79.4971      144.193
    542 3 0       111.58      76.9552      143.629
    543 3 0      115.191      78.8944      145.584
    544 1 0      111.837      81.8791      145.295
    545 2 0       112.96      80.9904      145.516
    546 2 0      114.098      81.5412      146.212
    547 2 0      113.734      82.8471      146.536
    548 2 0      112.401      83.0128      146.009
    549 3 0      115.028      81.0499      146.455
    550 3 0      114.325      83.5685       147.08
    551 3 0      110.754      81.6252      145.108
    552 1 0      112.272       85.437      146.941
    553 2 0      111.152      86.3387      146.675
    554 2 0      110.028      85.7922      145.959
    555 2 0      110.381      84.4739      145.668
    556 2 0        111.7      84.3032      146.221
    557 3 0      109.115      86.2959      145.678
    558 3 0      109.794      83.7535      145.119
    559 3 0      113.354      85.7456      146.859
    560 1 0      109.984      88.6564      146.822
    561 2 0      111.112      87.7641      147.075
    562 2 0      112.244      88.3213      147.771
    563 2 0      111.887       89.637      148.064
    564 2 0      110.559       89.799      147.527
    565 3 0      113.167      87.8286      148.033
    566 3 0      112.476      90.3638      148.602
    567 3 0      108.903      88.3436      146.899
    568 1 0      110.439      92.2317      148.436
    569 2 0      109.308      93.1218      148.195
    570 2 0      108.174       92.566      147.498
    571 2 0      108.533      91.2521      147.201
    572 2 0      109.864      91.0908      147.731
    573 3 0       107.25      93.0602      147.238
    574 3 0       107.94      90.5251      146.668
    575 3 0      111.523      92.5389      148.396
    576 1 0      108.127      95.4317      148.376
    577 2 0      109.259      94.5414      148.615
    578 2 0      110.392      95.0944      149.314
    579 2 0      110.031      96.4058       149.62
    580 2 0      108.701      96.5696      149.088
    581 3 0      111.316      94.6008      149.571
    582 3 0      110.621       97.131      150.159
    583 3 0      107.042      95.1274      148.435
    584 1 0      108.578      98.9982       150.01
    585 2 0       107.45      99.8919      149.755