# LAMMPS data file written by Ovito Basic 3.0.0-dev791
160 atoms
2 atom types
0.0 3.5057981014 xlo xhi
0.0 7.8392028809 ylo yhi
0.0 62.7136230469 zlo zhi

Atoms  # charge

1 1 0.0 0.0 0.0 31.356811523
2 1 0.0 0.0 0.0 39.196014404
3 1 0.0 0.0 0.0 47.035217285
4 1 0.0 0.0 0.0 54.874420166
5 1 0.0 0.0 3.135680914 32.9246521
6 1 0.0 0.0 3.135680914 40.76385498
7 1 0.0 0.0 3.135680914 48.603057861
8 1 0.0 0.0 3.135680914 56.442260742
9 1 0.0 0.0 4.703521729 37.628173828
10 1 0.0 0.0 4.703521729 45.467376709
11 1 0.0 0.0 4.703521729 53.30657959
12 1 0.0 0.0 4.703521729 61.145782471
13 1 0.0 0.0 1.567840457 36.060333252
14 1 0.0 0.0 1.567840457 43.899536133
15 1 0.0 0.0 1.567840457 51.738739014
16 1 0.0 0.0 1.567840457 59.577941895
17 1 0.0 0.0 6.271362305 34.492492676
18 1 0.0 0.0 6.271362305 42.331695557
19 1 0.0 0.0 6.271362305 50.170898438
20 1 0.0 0.0 6.271362305 58.010101318
21 1 0.0 0.0 5.487442017 32.140731812
22 1 0.0 0.0 5.487442017 39.979934692
23 1 0.0 0.0 5.487442017 47.819137573
24 1 0.0 0.0 5.487442017 55.658340454
25 1 0.0 0.0 0.78391999 33.708572388
26 1 0.0 0.0 0.78391999 41.547775269
27 1 0.0 0.0 0.78391999 49.386978149
28 1 0.0 0.0 0.78391999 57.22618103
29 1 0.0 0.0 2.351760864 38.412094116
30 1 0.0 0.0 2.351760864 46.251296997
31 1 0.0 0.0 2.351760864 54.090499878
32 1 0.0 0.0 2.351760864 61.929702759
33 1 0.0 0.0 7.055282593 36.84425354
34 1 0.0 0.0 7.055282593 44.683456421
35 1 0.0 0.0 7.055282593 52.522659302
36 1 0.0 0.0 7.055282593 60.361862183
37 1 0.0 0.0 3.91960144 35.276412964
38 1 0.0 0.0 3.91960144 43.115615845
39 1 0.0 0.0 3.91960144 50.954818726
40 1 0.0 0.0 3.91960144 58.794021606
41 1 0.0 1.752899051 6.271362305 38.412094116
42 1 0.0 1.752899051 6.271362305 46.251296997
43 1 0.0 1.752899051 6.271362305 54.090499878
44 1 0.0 1.752899051 6.271362305 61.929702759
45 1 0.0 1.752899051 1.567840457 32.140731812
46 1 0.0 1.752899051 1.567840457 39.979934692
47 1 0.0 1.752899051 1.567840457 47.819137573
48 1 0.0 1.752899051 1.567840457 55.658340454
49 1 0.0 1.752899051 3.135680914 36.84425354
50 1 0.0 1.752899051 3.135680914 44.683456421
51 1 0.0 1.752899051 3.135680914 52.522659302
52 1 0.0 1.752899051 3.135680914 60.361862183
53 1 0.0 1.752899051 0.0 35.276412964
54 1 0.0 1.752899051 0.0 43.115615845
55 1 0.0 1.752899051 0.0 50.954818726
56 1 0.0 1.752899051 0.0 58.794021606
57 1 0.0 1.752899051 4.703521729 33.708572388
58 1 0.0 1.752899051 4.703521729 41.547775269
59 1 0.0 1.752899051 4.703521729 49.386978149
60 1 0.0 1.752899051 4.703521729 57.22618103
61 1 0.0 1.752899051 7.055282593 32.9246521
62 1 0.0 1.752899051 7.055282593 40.76385498
63 1 0.0 1.752899051 7.055282593 48.603057861
64 1 0.0 1.752899051 7.055282593 56.442260742
65 1 0.0 1.752899051 2.351760864 34.492492676
66 1 0.0 1.752899051 2.351760864 42.331695557
67 1 0.0 1.752899051 2.351760864 50.170898438
68 1 0.0 1.752899051 2.351760864 58.010101318
69 1 0.0 1.752899051 3.91960144 31.356811523
70 1 0.0 1.752899051 3.91960144 39.196014404
71 1 0.0 1.752899051 3.91960144 47.035217285
72 1 0.0 1.752899051 3.91960144 54.874420166
73 1 0.0 1.752899051 0.783920467 37.628173828
74 1 0.0 1.752899051 0.783920467 45.467376709
75 1 0.0 1.752899051 0.783920467 53.30657959
76 1 0.0 1.752899051 0.783920467 61.145782471
77 1 0.0 1.752899051 5.487442017 36.060333252
78 1 0.0 1.752899051 5.487442017 43.899536133
79 1 0.0 1.752899051 5.487442017 51.738739014
80 1 0.0 1.752899051 5.487442017 59.577941895
81 2 0.0 0.0 0.0 0.0
82 2 0.0 0.0 0.0 7.87331152
83 2 0.0 0.0 0.0 15.746623039
84 2 0.0 0.0 0.0 23.619934082
85 2 0.0 0.0 4.723987103 1.574662328
86 2 0.0 0.0 4.723987103 9.447974205
87 2 0.0 0.0 4.723987103 17.321285248
88 2 0.0 0.0 4.723987103 25.194597244
89 2 0.0 0.0 3.149324656 6.298649311
90 2 0.0 0.0 3.149324656 14.171960831
91 2 0.0 0.0 3.149324656 22.045272827
92 2 0.0 0.0 3.149324656 29.918582916
93 2 0.0 0.0 6.298649311 4.723987103
94 2 0.0 0.0 6.298649311 12.597298622
95 2 0.0 0.0 6.298649311 20.470609665
96 2 0.0 0.0 6.298649311 28.343921661
97 2 0.0 0.0 1.574662328 3.149324656
98 2 0.0 0.0 1.574662328 11.022636414
99 2 0.0 0.0 1.574662328 18.89594841
100 2 0.0 0.0 1.574662328 26.769260406
101 2 0.0 0.0 2.361993551 0.787331164
102 2 0.0 0.0 2.361993551 8.660642624
103 2 0.0 0.0 2.361993551 16.533952713
104 2 0.0 0.0 2.361993551 24.407264709
105 2 0.0 0.0 7.085980415 2.361993551
106 2 0.0 0.0 7.085980415 10.235304832
107 2 0.0 0.0 7.085980415 18.108615875
108 2 0.0 0.0 7.085980415 25.981927872
109 2 0.0 0.0 5.511318207 7.085980415
110 2 0.0 0.0 5.511318207 14.959291458
111 2 0.0 0.0 5.511318207 22.832603455
112 2 0.0 0.0 5.511318207 30.705915451
113 2 0.0 0.0 0.787331223 5.511318207
114 2 0.0 0.0 0.787331223 13.384630203
115 2 0.0 0.0 0.787331223 21.2579422
116 2 0.0 0.0 0.787331223 29.131252289
117 2 0.0 0.0 3.93665576 3.93665576
118 2 0.0 0.0 3.93665576 11.809967041
119 2 0.0 0.0 3.93665576 19.683279037
120 2 0.0 0.0 3.93665576 27.556591034
121 2 0.0 1.760525942 1.574662328 7.085980415
122 2 0.0 1.760525942 1.574662328 14.959291458
123 2 0.0 1.760525942 1.574662328 22.832603455
124 2 0.0 1.760525942 1.574662328 30.705915451
125 2 0.0 1.760525942 6.298649311 0.787330985
126 2 0.0 1.760525942 6.298649311 8.660642624
127 2 0.0 1.760525942 6.298649311 16.533952713
128 2 0.0 1.760525942 6.298649311 24.407264709
129 2 0.0 1.760525942 4.723987103 5.511318207
130 2 0.0 1.760525942 4.723987103 13.384630203
131 2 0.0 1.760525942 4.723987103 21.2579422
132 2 0.0 1.760525942 4.723987103 29.131252289
133 2 0.0 1.760525942 0.0 3.936655521
134 2 0.0 1.760525942 0.0 11.809967041
135 2 0.0 1.760525942 0.0 19.683279037
136 2 0.0 1.760525942 0.0 27.556591034
137 2 0.0 1.760525942 3.149324656 2.361993313
138 2 0.0 1.760525942 3.149324656 10.235304832
139 2 0.0 1.760525942 3.149324656 18.108615875
140 2 0.0 1.760525942 3.149324656 25.981927872
141 2 0.0 1.760525942 0.787331164 1.574662328
142 2 0.0 1.760525942 0.787331164 9.447974205
143 2 0.0 1.760525942 0.787331164 17.321285248
144 2 0.0 1.760525942 0.787331164 25.194597244
145 2 0.0 1.760525942 5.511318207 3.149324656
146 2 0.0 1.760525942 5.511318207 11.022636414
147 2 0.0 1.760525942 5.511318207 18.89594841
148 2 0.0 1.760525942 5.511318207 26.769260406
149 2 0.0 1.760525942 3.93665576 0.0
150 2 0.0 1.760525942 3.93665576 7.87331152
151 2 0.0 1.760525942 3.93665576 15.746623039
152 2 0.0 1.760525942 3.93665576 23.619934082
153 2 0.0 1.760525942 7.085980415 6.298649311
154 2 0.0 1.760525942 7.085980415 14.171960831
155 2 0.0 1.760525942 7.085980415 22.045272827
156 2 0.0 1.760525942 7.085980415 29.918582916
157 2 0.0 1.760525942 2.361993551 4.723987103
158 2 0.0 1.760525942 2.361993551 12.597298622
159 2 0.0 1.760525942 2.361993551 20.470609665
160 2 0.0 1.760525942 2.361993551 28.343921661
