#Input file for lammps
 
4050 atoms
3 atom types
 
0.0 175.5 xlo xhi
0.0 175.5 ylo yhi
0.0 175.5 zlo zhi
 
Masses
 
1 14
2 12
3 1.008
 
Atoms
 
      1 1 0      92.9799      77.1482      120.542
      2 2 0      92.6596      76.7552      119.049
      3 2 0      92.5352      75.3612      119.083
      4 2 0      92.7429      74.8594      120.427
      5 2 0      92.9955      75.9712      121.207
      6 3 0      92.3144      74.7415      118.227
      7 3 0      92.7072      73.8273       120.75
      8 3 0      93.1963      75.9573      122.272
      9 3 0      93.1554      78.1874      120.951
     10 1 0      92.2259      77.1947      116.544
     11 2 0       92.525      77.5711      117.936
     12 2 0      92.6505      79.0038      117.889
     13 2 0       92.445      79.4703      116.577
     14 2 0      92.1749      78.3643      115.699
     15 3 0      92.8704      79.6329      118.738
     16 3 0      92.4851      80.5074      116.277
     17 3 0      92.0592      76.1426       116.19
     18 1 0      91.8635      79.6192      113.449
     19 2 0      91.5663      79.2296      112.077
     20 2 0      91.4418      77.8036      112.118
     21 2 0      91.6498      77.3399      113.438
     22 2 0      91.9178      78.4456      114.307
     23 3 0      91.2218      77.1721       111.27
     24 3 0       91.611      76.3038      113.741
     25 3 0      92.0283      80.6759      113.795
     26 1 0      91.1276      79.6387       109.56
     27 2 0      91.4229      80.0402      110.926
     28 2 0      91.5437      81.4674       110.87
     29 2 0      91.3351      81.9177      109.547
     30 2 0      91.0699      80.8032      108.685
     31 3 0      91.7617      82.1076      111.711
     32 3 0      91.3715      82.9499      109.233
     33 3 0      90.9679      78.5791      109.222
     34 1 0      90.7553      82.0275      106.403
     35 2 0      90.4724      81.5976      105.069
     36 2 0      90.3531      80.1826      105.114
     37 2 0      90.5584      79.7397      106.451
     38 2 0      90.8156      80.8555      107.299
     39 3 0      90.1409      79.5412      104.271
     40 3 0      90.5249      78.7087       106.77
     41 3 0      90.9164      83.0964      106.718
     42 1 0      90.0376      81.8256      102.536
     43 2 0      90.3227      82.3923      103.858
     44 2 0      90.4561      83.8414      103.913
     45 2 0      90.2431      84.2845      102.618
     46 2 0      89.9918      83.0817      101.844
     47 3 0      90.6688      84.4502      104.776
     48 3 0      90.2564      85.3054      102.271
     49 3 0      89.7551      80.7805      102.219
     50 1 0      89.6545      84.4907      99.6847
     51 2 0      89.4075      83.9274      98.3725
     52 2 0      89.2777      82.4919      98.3002
     53 2 0      89.4696      82.0388      99.6043
     54 2 0      89.7066      83.2268      100.388
     55 3 0      89.0837       81.888      97.4276
     56 3 0      89.4556      81.0141      99.9425
     57 3 0      89.9911      85.5234      99.9918
     58 1 0      89.0455      84.1537      95.8122
     59 2 0      89.2763      84.7251      97.1236
     60 2 0      89.3676      86.1634      97.1998
     61 2 0      89.1375      86.6155      95.9015
     62 2 0      88.9292      85.4236      95.1143
     63 3 0      89.5513      86.7703      98.0726
     64 3 0      89.1069      87.6416      95.5685
     65 3 0      88.6057      83.1512      95.5395
     66 1 0      88.5027      86.8408      92.9762
     67 2 0      88.3134      86.2535      91.6508
     68 2 0      88.2463      84.8166      91.5753
     69 2 0      88.4412      84.3693      92.8828
     70 2 0      88.6191      85.5616        93.67
     71 3 0      88.1059      84.2069      90.6958
     72 3 0      88.4783      83.3433      93.2161
     73 3 0      89.1777      87.7222      93.1768
     74 1 0      87.9986      86.4438      89.0774
     75 2 0      88.2047      87.0344       90.397
     76 2 0      88.2937      88.4713      90.4648
     77 2 0      88.0949      88.9157      89.1582
     78 2 0      87.8984      87.7214      88.3761
     79 3 0       88.458      89.0833      91.3378
     80 3 0      88.0693      89.9399      88.8191
     81 3 0      87.3266       85.559      88.8805
     82 1 0      87.4967      89.1364      86.2324
     83 2 0      87.2776      88.5491      84.9143
     84 2 0       87.189      87.1115      84.8446
     85 2 0      87.3921      86.6664      86.1498
     86 2 0      87.5967      87.8601      86.9323
     87 3 0      87.0233      86.5007      83.9702
     88 3 0      87.4114      85.6425       86.488
     89 3 0      88.1372      90.0411      86.4388
     90 1 0      86.9268      88.7448       82.345
     91 2 0      87.1474      89.3316      83.6634
     92 2 0      87.2331      90.7689      83.7355
     93 2 0      87.0212      91.2162      82.4324
     94 2 0      86.8188      90.0232      81.6479
     95 3 0      87.4025      91.3789      84.6096
     96 3 0      86.9951      92.2412      82.0955
     97 3 0      86.2701      87.8513      82.1374
     98 1 0      86.4041      91.4417      79.5078
     99 2 0      86.1998      90.8507      78.1869
    100 2 0      86.1141      89.4129      78.1173
    101 2 0       86.317      88.9685      79.4227
    102 2 0      86.5118      90.1626      80.2064
    103 3 0      85.9523      88.8013      77.2431
    104 3 0       86.347      87.9445      79.7612
    105 3 0       87.082      92.3243      79.6965
    106 1 0      85.8908      91.0458      75.6125
    107 2 0      86.0938      91.6333      76.9353
    108 2 0      86.1818      93.0708      77.0085
    109 2 0      85.9787      93.5193      75.7049
    110 2 0      85.7799      92.3273      74.9183
    111 3 0      86.3423      93.6796      77.8851
    112 3 0      85.9507      94.5447      75.3698
    113 3 0      85.2117      90.1679      75.4096
    114 1 0      85.3456      93.7463      72.7839
    115 2 0      85.1373      93.1581      71.4632
    116 2 0      85.0499      91.7203      71.3924
    117 2 0      85.2615      91.2733      72.6952
    118 2 0      85.4619       92.467      73.4797
    119 3 0      84.8854      91.1105      70.5178
    120 3 0      85.2958      90.2487      73.0317
    121 3 0      86.0121      94.6356      72.9791
    122 1 0      84.8307      93.3571      68.8884
    123 2 0        85.03      93.9424      70.2123
    124 2 0      85.1141        95.38      70.2885
    125 2 0      84.9171      95.8293      68.9839
    126 2 0      84.7212      94.6382      68.1951
    127 3 0      85.2686      95.9859       71.167
    128 3 0      84.8887      96.8546      68.6499
    129 3 0      84.1616      92.4709       68.687
    130 1 0       84.286      96.0583      66.0596
    131 2 0      84.0772      95.4671      64.7388
    132 2 0      84.0004      94.0292       64.668
    133 2 0      84.2162      93.5841      65.9712
    134 2 0      84.4071      94.7789      66.7554
    135 3 0      83.8398      93.4173      63.7935
    136 3 0      84.2553      92.5598      66.3078
    137 3 0       84.963      96.9403      66.2541
    138 1 0      83.7556      95.6583      62.1652
    139 2 0      83.9592      96.2485      63.4876
    140 2 0      84.0361      97.6861       63.561
    141 2 0      83.8365      98.1325      62.2557
    142 2 0      83.6486      96.9394      61.4687
    143 3 0      84.1915      98.2965      64.4376
    144 3 0      83.8056      99.1577      61.9212
    145 3 0       83.075      94.7794       61.973
    146 1 0      83.2406      98.3639      59.3317
    147 2 0      83.0319      97.7763        58.01
    148 2 0      82.9547      96.3387      57.9351
    149 2 0      83.1591      95.8897      59.2388
    150 2 0      83.3489       97.082      60.0267
    151 3 0      82.7976      95.7313      57.0572
    152 3 0       83.192      94.8646      59.5736
    153 3 0      83.9213      99.2407      59.5315
    154 1 0      82.6993      97.9651      55.4383
    155 2 0      82.9075      98.5569      56.7585
    156 2 0      82.9843      99.9946      56.8288
    157 2 0      82.7767      100.439      55.5238
    158 2 0      82.5882      99.2445      54.7396
    159 3 0      83.1412      100.607      57.7033
    160 3 0      82.7426      101.463       55.186
    161 3 0       82.023      97.0824      55.2476
    162 3 0      82.3733      99.3205      53.6737
    163 1 0      166.651      21.2481      111.621
    164 2 0      165.124      21.4325      111.274
    165 2 0      164.493      20.3762      111.942
    166 2 0      165.461      19.5691      112.657
    167 2 0      166.689      20.1522      112.412
    168 3 0       163.43      20.1864      111.927
    169 3 0      165.261      18.6914      113.258
    170 3 0      167.639         19.8      112.799
    171 3 0      167.512      21.8957      111.279
    172 1 0      163.085      22.5655      110.173
    173 2 0      164.512      22.4015      110.493
    174 2 0      165.151      23.4908      109.802
    175 2 0      164.194      24.2617      109.115
    176 2 0      162.881       23.714      109.322
    177 3 0      166.211      23.6903      109.809
    178 3 0      164.418      25.1357      108.521
    179 3 0      162.267      21.8909      110.542
    180 1 0      161.457      25.3781       107.93
    181 2 0       160.04      25.5265      107.624
    182 2 0      159.401      24.4431      108.308
    183 2 0      160.366      23.6713      108.997
    184 2 0      161.671      24.2218      108.787
    185 3 0       158.34      24.2416      108.302
    186 3 0      160.145      22.7968      109.591
    187 3 0      162.269      26.0594      107.557
    188 1 0      157.976      26.6404      106.533
    189 2 0      159.392      26.5041      106.833
    190 2 0      160.018      27.5937      106.144
    191 2 0      159.045      28.3558       105.46
    192 2 0      157.743      27.7949      105.674
    193 3 0      161.077      27.8047      106.144
    194 3 0      159.253      29.2308      104.863
    195 3 0       157.17      25.9523      106.908
    196 1 0      156.277      29.4432      104.282
    197 2 0      154.879       29.543      103.999
    198 2 0      154.249      28.4649      104.677
    199 2 0      155.236      27.7076      105.367
    200 2 0      156.525      28.2767      105.152
    201 3 0       153.19      28.2499      104.672
    202 3 0      155.034      26.8306      105.964
    203 3 0      157.067      30.1431       103.89
    204 1 0      152.721      30.5131       102.97
    205 2 0      154.171      30.5244       103.19
    206 2 0      154.904      31.6006      102.538
    207 2 0      153.949      32.3534      101.874
    208 2 0      152.686      31.6951      102.157
    209 3 0      155.965      31.7847      102.566
    210 3 0      154.117      33.2394      101.283
    211 3 0      151.901      29.9005      103.443
    212 1 0      151.398      33.4778       100.77
    213 2 0       149.97      33.4459      100.524
    214 2 0      149.229      32.3824      101.159
    215 2 0      150.181      31.6314      101.847
    216 2 0      151.441      32.2836      101.587
    217 3 0      148.168      32.1938       101.11
    218 3 0      150.003      30.7445      102.436
    219 3 0      152.221      34.0525      100.254
    220 1 0      147.812        34.38      99.4254
    221 2 0      149.237      34.4275      99.6797
    222 2 0       149.97       35.514      99.0752
    223 2 0      149.011      36.2841      98.4194
    224 2 0      147.755      35.6135      98.6582
    225 3 0      151.029      35.7106      99.1311
    226 3 0      149.179      37.1958      97.8669
    227 3 0      146.998      33.8796      100.025
    228 1 0       146.46      37.4479      97.3469
    229 2 0      145.029      37.3675      97.0602
    230 2 0      144.305      36.2686      97.6459
    231 2 0      145.263      35.5198      98.3313
    232 2 0      146.509      36.2077      98.1156
    233 3 0      143.253       36.047      97.5544
    234 3 0      145.097      34.6045       98.879
    235 3 0      147.235      37.7357      96.5787
    236 1 0      142.859      38.2492      95.9329
    237 2 0      144.292      38.3242      96.2026
    238 2 0      145.017      39.4125      95.5962
    239 2 0      144.057      40.1609      94.9152
    240 2 0      142.808      39.4807      95.1486
    241 3 0      146.072      39.6241      95.6651
    242 3 0      144.221      41.0696      94.3566
    243 3 0      142.087      37.9562       96.702
    244 1 0      141.516      41.3007      93.8164
    245 2 0      140.081      41.2352       93.556
    246 2 0      139.355      40.1465      94.1615
    247 2 0      140.314      39.3955      94.8387
    248 2 0      141.565      40.0706      94.5995
    249 3 0      138.298       39.937      94.0926
    250 3 0      140.148      38.4908      95.4015
    251 3 0      142.294      41.6251      93.0682
    252 1 0      137.905      42.1405      92.4564
    253 2 0       139.34      42.2046      92.7158
    254 2 0      140.068      43.2942       92.114
    255 2 0      139.108      44.0514      91.4437
    256 2 0      137.856      43.3761      91.6799
    257 3 0      141.125      43.5011      92.1803
    258 3 0      139.274      44.9606      90.8863
    259 3 0      137.125      41.8343      93.2118
    260 1 0      136.564      45.2053       90.358
    261 2 0       135.13      45.1294      90.0864
    262 2 0      134.404      44.0388      90.6898
    263 2 0      135.364      43.2884      91.3669
    264 2 0      136.614      43.9691      91.1357
    265 3 0      133.349      43.8265      90.6182
    266 3 0      135.201      42.3775      91.9217
    267 3 0      137.329       45.495      89.5811
    268 1 0      132.963      46.0119      88.9523
    269 2 0      134.396      46.0854      89.2272
    270 2 0      135.125      47.1736       88.624
    271 2 0      134.169       47.927      87.9463
    272 2 0      132.916       47.251      88.1783
    273 3 0      136.181       47.384       88.699
    274 3 0      134.336      48.8372      87.3912
    275 3 0      132.186      45.7297      89.7211
    276 1 0      131.623      49.0903      86.8741
    277 2 0      130.189      49.0187      86.6046
    278 2 0      129.462      47.9294      87.2086
    279 2 0      130.421      47.1726      87.8788
    280 2 0      131.673      47.8496      87.6439
    281 3 0      128.406        47.72      87.1382
    282 3 0      130.258      46.2593      88.4296
    283 3 0      132.393      49.3903      86.1066
    284 1 0      128.024      49.9031      85.4669
    285 2 0      129.456      49.9768      85.7461
    286 2 0      130.187      51.0666      85.1474
    287 2 0      129.232      51.8175      84.4641
    288 2 0      127.979      51.1409      84.6924
    289 3 0      131.241      51.2775      85.2289
    290 3 0      129.399      52.7275      83.9098
    291 3 0      127.249      49.6084       86.232
    292 1 0      126.684      52.9819      83.3879
    293 2 0      125.249      52.9082      83.1199
    294 2 0      124.525      51.8129      83.7158
    295 2 0      125.487      51.0552      84.3823
    296 2 0      126.736      51.7385       84.154
    297 3 0       123.47      51.5997      83.6434
    298 3 0      125.326      50.1394      84.9293
    299 3 0      127.455      53.2704      82.6149
    300 1 0      123.077      53.7945      81.9974
    301 2 0      124.512      53.8699      82.2706
    302 2 0      125.237      54.9644       81.676
    303 2 0       124.28      55.7145      80.9956
    304 2 0       123.03      55.0315      81.2194
    305 3 0      126.292      55.1788      81.7542
    306 3 0      124.446       56.626       80.443
    307 3 0      122.309        53.51      82.7731
    308 1 0      121.745      56.8612      79.8916
    309 2 0       120.31      56.7906      79.6215
    310 2 0      119.583      55.6966      80.2157
    311 2 0       120.54      54.9421      80.8927
    312 2 0      121.791      55.6232      80.6681
    313 3 0      118.528      55.4858       80.137
    314 3 0      120.375      54.0295      81.4438
    315 3 0      122.518      57.1423      79.1203
    316 1 0      118.135      57.6806      78.5094
    317 2 0       119.57      57.7553      78.7773
    318 2 0      120.293      58.8505      78.1813
    319 2 0      119.333      59.6036      77.5078
    320 2 0      118.084      58.9191      77.7341
    321 3 0      121.348      59.0665      78.2562
    322 3 0      119.495      60.5167      76.9564
    323 3 0      117.368      57.3904      79.2841
    324 3 0      117.157      59.3291      77.3332
    325 1 0      24.4536      129.882      148.099
    326 2 0      25.5973      128.798      148.137
    327 2 0      26.7768       129.55        148.2
    328 2 0      26.4827      130.968      148.205
    329 2 0       25.106      131.066      148.144
    330 3 0      27.7717      129.132       148.24
    331 3 0       27.195      131.782      148.248
    332 3 0      24.5427      131.992      148.131
    333 3 0      23.3393      129.698      148.046
    334 1 0      26.5722       126.41       148.15
    335 2 0      25.4974      127.415      148.114
    336 2 0      24.2912      126.633       148.05
    337 2 0      24.5991      125.259      148.047
    338 2 0      26.0234      125.075      148.108
    339 3 0      23.2926      127.039      148.011
    340 3 0      23.8697      124.463      148.004
    341 3 0      27.6678      126.648      148.203
    342 1 0      26.1602      122.483      148.083
    343 2 0      27.2362      121.501      148.119
    344 2 0       28.439      122.276      148.182
    345 2 0      28.1245      123.655      148.184
    346 2 0      26.7051      123.832      148.123
    347 3 0      29.4396      121.871      148.221
    348 3 0      28.8515      124.452      148.226
    349 3 0      25.0653      122.235       148.03
    350 1 0      28.2433      119.118      148.133
    351 2 0       27.161      120.089      148.098
    352 2 0      25.9652      119.301      148.037
    353 2 0      26.2925      117.926      148.033
    354 2 0      27.7153       117.76      148.093
    355 3 0      24.9608      119.695      147.998
    356 3 0       25.575      117.121      147.992
    357 3 0      29.3361      119.376      148.182
    358 1 0      27.8948      115.158      148.064
    359 2 0      28.9832      114.231       148.09
    360 2 0      30.1743      115.003      148.149
    361 2 0      29.8342      116.385      148.158
    362 2 0      28.4182      116.538      148.105
    363 3 0      31.1797      114.609      148.181
    364 3 0      30.5472      117.195      148.198
    365 3 0      26.8061      114.876       148.01
    366 1 0      30.1519      111.931      148.089
    367 2 0      28.9535      112.775      148.065
    368 2 0      27.6802      112.071      148.011
    369 2 0      28.0002      110.722      148.017
    370 2 0      29.4503      110.679      148.073
    371 3 0       26.692      112.499       147.98
    372 3 0      27.3122      109.893      147.991
    373 3 0      31.2374      112.183      148.263
    374 1 0      29.4134      108.079      148.096
    375 2 0      30.5989      107.245      148.085
    376 2 0       31.869      107.929      148.133
    377 2 0      31.5559      109.287      148.149
    378 2 0      30.1147      109.345      148.108
    379 3 0      32.8555      107.492      148.144
    380 3 0      32.2515      110.112      148.174
    381 3 0      28.3363      107.831      147.867
    382 1 0      31.7733      104.932      148.008
    383 2 0      30.5836      105.759      148.035
    384 2 0      29.3142      105.072      148.026
    385 2 0      29.6301      103.715      148.048
    386 2 0      31.0725       103.66      148.061
    387 3 0      28.3264      105.506      148.025
    388 3 0      28.9365      102.888      148.069
    389 3 0      32.8207       105.18      148.346
    390 1 0      31.0293      101.062      148.176
    391 2 0      32.2342      100.237      148.105
    392 2 0       33.499      100.926       148.09
    393 2 0      33.1789      102.285      148.104
    394 2 0      31.7402      102.336      148.122
    395 3 0      34.4869      100.494      148.047
    396 3 0      33.8715      103.112      148.077
    397 3 0      30.0907      100.847      147.588
    398 1 0      33.4399      97.9377      147.977
    399 2 0      32.2329       98.758      148.031
    400 2 0      30.9692      98.0651      148.022
    401 2 0      31.2918      96.7086      148.012
    402 2 0       32.732      96.6603      148.014
    403 3 0      29.9796       98.494      148.041
    404 3 0      30.6023      95.8785      148.026
    405 3 0      34.3789      98.1584      148.562
    406 1 0      32.6903      94.0624      148.103
    407 2 0      33.8955        93.24      148.063
    408 2 0      35.1608      93.9317       148.07
    409 2 0      34.8388      95.2879      148.076
    410 2 0      33.3978      95.3379      148.066
    411 3 0      36.1503      93.5008      148.053
    412 3 0      35.5293      96.1163      148.068
    413 3 0      31.7337      93.8353      147.551
    414 1 0      35.0992      90.9366      147.971
    415 2 0      33.8941      91.7598       148.01
    416 2 0      32.6282      91.0698      148.006
    417 2 0      32.9483      89.7131      148.009
    418 2 0      34.3894      89.6613      148.016
    419 3 0       31.639      91.5013       148.02
    420 3 0      32.2571      88.8844      148.025
    421 3 0       36.049      91.1548      148.539
    422 1 0      34.3447       87.063       148.12
    423 2 0      35.5524       86.242      148.064
    424 2 0      36.8174      86.9343      148.068
    425 2 0      36.4948      88.2903      148.074
    426 2 0      35.0542      88.3398      148.075
    427 3 0       37.807      86.5044      148.047
    428 3 0       37.184      89.1203      148.056
    429 3 0       33.411      86.8374      147.527
    430 1 0      36.7538      83.9398       147.93
    431 2 0      35.5481      84.7641      147.987
    432 2 0      34.2813      84.0752      147.981
    433 2 0      34.5995      82.7186      147.976
    434 2 0      36.0404       82.665      147.979
    435 3 0       33.293      84.5085      148.004
    436 3 0      33.9072       81.891      147.993
    437 3 0       37.691      84.1509      148.522
    438 1 0      35.9948      80.0687      148.102
    439 2 0      37.2006      79.2461      148.051
    440 2 0      38.4664      79.9371      148.057
    441 2 0      38.1463      81.2933      148.054
    442 2 0      36.7047      81.3445      148.049
    443 3 0       39.455      79.5056      148.038
    444 3 0      38.8363      82.1225       148.03
    445 3 0      35.0535      79.8437      147.522
    446 1 0      38.3985      76.9417      147.915
    447 2 0      37.1946      77.7676      147.976
    448 2 0      35.9267      77.0807      147.974
    449 2 0      36.2439      75.7235      147.962
    450 2 0      37.6848       75.668      147.962
    451 3 0      34.9407      77.5163      148.003
    452 3 0      35.5512      74.8969       147.98
    453 3 0      39.3407      77.1597      148.496
    454 1 0       37.639      73.0701      148.087
    455 2 0      38.8475      72.2488      148.035
    456 2 0       40.112      72.9412      148.031
    457 2 0      39.7894      74.2974      148.024
    458 2 0      38.3484      74.3464      148.028
    459 3 0      41.1018      72.5115      148.009
    460 3 0      40.4786       75.127      147.996
    461 3 0      36.7028      72.8496      147.496
    462 1 0      40.0532      69.9478      147.914
    463 2 0      38.8455      70.7704      147.971
    464 2 0      37.5798      70.0803      147.975
    465 2 0      37.9003      68.7238      147.966
    466 2 0      39.3409      68.6718      147.958
    467 3 0       36.591       70.512      148.003
    468 3 0      37.2083      67.8963      147.987
    469 3 0      40.9861      70.1683      148.509
    470 1 0      39.2886      66.0737      148.056
    471 2 0      40.4945      65.2496      148.004
    472 2 0      41.7609      65.9384          148
    473 2 0      41.4429      67.2956      148.004
    474 2 0      40.0022       67.349       148.01
    475 3 0      42.7482      65.5038      147.974
    476 3 0      42.1344      68.1234      147.982
    477 3 0      38.3537      65.8607      147.462
    478 1 0      41.7028      62.9501      147.894
    479 2 0      40.4942      63.7706      147.946
    480 2 0      39.2301      63.0778       147.95
    481 2 0      39.5529      61.7215      147.949
    482 2 0      40.9935      61.6726      147.942
    483 3 0        38.24      63.5067      147.976
    484 3 0       38.864      60.8915      147.972
    485 3 0      42.6374      63.1744      148.485
    486 3 0      41.5063      60.7113      147.972
    487 1 0      166.074        112.8      78.2653
    488 2 0      164.593      112.277      78.4031
    489 2 0      164.448       111.38      77.3379
    490 2 0      165.672      111.297      76.5664
    491 2 0      166.561      112.157      77.1805
    492 3 0      163.549      110.824      77.1185
    493 3 0      165.851      110.686      75.6908
    494 3 0      167.581       112.34      76.8594
    495 3 0      166.599      113.547      78.9325
    496 1 0      162.248      112.111      79.4659
    497 2 0       163.63      112.605      79.3454
    498 2 0      163.768      113.525      80.4436
    499 2 0      162.569       113.59      81.1795
    500 2 0      161.587      112.716       80.598
    501 3 0      164.661      114.084      80.6725
    502 3 0      162.414      114.208      82.0522
    503 3 0      161.774      111.365      78.7733
    504 1 0      159.591      113.123      82.2053
    505 2 0      158.226      112.623      82.3106
    506 2 0      158.084      111.708      81.2181
    507 2 0       159.29      111.646      80.4817
    508 2 0      160.264      112.518      81.0657
    509 3 0       157.19      111.147      80.9872
    510 3 0      159.447       111.03      79.6086
    511 3 0      160.057      113.869      82.9043
    512 1 0      155.866      112.436      83.3537
    513 2 0      157.226       112.94      83.2603
    514 2 0      157.354      113.853      84.3586
    515 2 0      156.144      113.907      85.0851
    516 2 0      155.175      113.032      84.4909
    517 3 0      158.243      114.417      84.5988
    518 3 0      155.975      114.518      85.9584
    519 3 0      155.406      111.692      82.6481
    520 1 0      153.144      113.417      86.0812
    521 2 0      151.809      112.908      86.1388
    522 2 0      151.671      112.003      85.0518
    523 2 0      152.897      111.951      84.3305
    524 2 0      153.853       112.82      84.9325
    525 3 0      150.781      111.443      84.8074
    526 3 0      153.071      111.343      83.4554
    527 3 0      153.581      114.167       86.798
    528 1 0      149.407       112.62      87.0363
    529 2 0      150.749      113.209      87.0904
    530 2 0      150.988      114.147      88.1787
    531 2 0      149.803      114.194      88.8967
    532 2 0      148.908      113.282       88.207
    533 3 0      151.894       114.69      88.3924
    534 3 0      149.603      114.779      89.7799
    535 3 0      148.986      111.784      86.4068
    536 1 0      147.025      113.758      89.9366
    537 2 0      145.689      113.202      89.8622
    538 2 0      145.434      112.274      88.7862
    539 2 0      146.628      112.205      88.0702
    540 2 0      147.534      113.096      88.7539
    541 3 0      144.518      111.749      88.5676
    542 3 0       146.82      111.616      87.1858
    543 3 0      147.428      114.631      90.5277
    544 1 0      143.251      112.972      90.7228
    545 2 0      144.589      113.519      90.8129
    546 2 0      144.853      114.417       91.912
    547 2 0      143.669      114.454      92.6473
    548 2 0      142.756      113.584      91.9451
    549 3 0      145.772      114.935      92.1386
    550 3 0      143.489      115.007      93.5567
    551 3 0      142.899      112.032      90.2072
    552 1 0      140.907      113.991       93.727
    553 2 0      139.547      113.469      93.6035
    554 2 0      139.281      112.592       92.492
    555 2 0      140.479      112.528      91.7784
    556 2 0      141.396      113.374      92.4979
    557 3 0       138.35      112.108      92.2402
    558 3 0      140.659      111.981      90.8654
    559 3 0      141.142      115.053       94.027
    560 1 0      137.085      113.257      94.4111
    561 2 0      138.438      113.795      94.5291
    562 2 0      138.693       114.69      95.6298
    563 2 0      137.496      114.749       96.343
    564 2 0      136.587      113.887      95.6313
    565 3 0      139.615      115.195      95.8713
    566 3 0      137.309      115.304      97.2492
    567 3 0      136.853      112.196       94.106
    568 1 0      134.728      114.313      97.3986
    569 2 0      133.379      113.766      97.2903
    570 2 0      133.122      112.871      96.1892
    571 2 0      134.317      112.816      95.4733
    572 2 0      135.226      113.684      96.1799
    573 3 0      132.199      112.366      95.9497
    574 3 0      134.504      112.255       94.571
    575 3 0      134.976       115.36      97.7356
    576 1 0      130.927      113.528      98.1216
    577 2 0      132.276      114.076      98.2286
    578 2 0      132.536      114.968      99.3308
    579 2 0      131.345      115.018      100.053
    580 2 0      130.433      114.152       99.346
    581 3 0      133.458      115.476      99.5676
    582 3 0      131.159      115.573       100.96
    583 3 0      130.681      112.474       97.803
    584 1 0      128.581       114.57      101.123
    585 2 0      127.227      114.033      101.004