#h_1                                          0   -18923.60   9.96   8.62 300.00  90.00  90.00  90.00
2448 atoms
4 atom types
  
0.0  29.880 xlo xhi
0.0  25.860 ylo yhi
0.0 300.000 zlo zhi
0.0 0.0 0.0 xy xz yz

Masses

1 196.9665
2 32.066
3 12.0107
4 1.0079

Atoms 

 1 1  0.0      9.4933  0.7132 132.2950
 2 1  0.0      7.0045  2.1501 132.2950
 3 1  0.0      7.8342  0.7133 134.6440
 4 1  0.0      5.3454  2.1502 134.6440
 5 1  0.0      8.6637  2.1501 136.9890
 6 1  0.0      6.1749  0.7133 136.9890
 7 1  0.0      4.5157  0.7131 132.2950
 8 1  0.0      2.0270  2.1502 132.2950
 9 1  0.0      2.8567  0.7132 134.6440
10 1  0.0      0.3678  2.1501 134.6440
11 1  0.0      3.6862  2.1501 136.9890
12 1  0.0      1.1974  0.7133 136.9890
13 1  0.0      9.4933  3.5869 132.2950
14 1  0.0      7.0046  5.0239 132.2950
15 1  0.0      7.8342  3.5870 134.6440
16 1  0.0      5.3453  5.0239 134.6440
17 1  0.0      8.6638  5.0239 136.9890
18 1  0.0      6.1750  3.5870 136.9890
19 1  0.0      4.5157  3.5871 132.2950
20 1  0.0      2.0269  5.0240 132.2950
21 1  0.0      2.8565  3.5870 134.6440
22 1  0.0      0.3678  5.0239 134.6440
23 1  0.0      3.6861  5.0239 136.9890
24 1  0.0      1.1973  3.5871 136.9890
25 1  0.0      9.4934  6.4609 132.2950
26 1  0.0      7.0045  7.8977 132.2950
27 1  0.0      7.8343  6.4608 134.6440
28 1  0.0      5.3454  7.8977 134.6440
29 1  0.0      8.6638  7.8978 136.9890
30 1  0.0      6.1750  6.4609 136.9890
31 1  0.0      4.5157  6.4608 132.2950
32 1  0.0      2.0269  7.8977 132.2950
33 1  0.0      2.8567  6.4608 134.6440
34 1  0.0      0.3678  7.8977 134.6440
35 1  0.0      3.6861  7.8977 136.9890
36 1  0.0      1.1973  6.4609 136.9890
37 1  0.0      9.4933  0.7133 139.3360
38 1  0.0      7.0045  2.1500 139.3360
39 1  0.0      7.8342  0.7131 141.6820
40 1  0.0      5.3454  2.1501 141.6820
41 1  0.0      8.6638  2.1501 144.0290
42 1  0.0      6.1750  0.7132 144.0290
43 1  0.0      4.5157  0.7132 139.3360
44 1  0.0      2.0270  2.1501 139.3360
45 1  0.0      2.8565  0.7132 141.6820
46 1  0.0      0.3677  2.1501 141.6820
47 1  0.0      3.6861  2.1502 144.0290
48 1  0.0      1.1972  0.7132 144.0290
49 1  0.0      9.4933  3.5871 139.3360
50 1  0.0      7.0045  5.0239 139.3360
51 1  0.0      7.8341  3.5871 141.6820
52 1  0.0      5.3453  5.0239 141.6820
53 1  0.0      8.6638  5.0240 144.0290
54 1  0.0      6.1749  3.5870 144.0290
55 1  0.0      4.5157  3.5870 139.3360
56 1  0.0      2.0268  5.0239 139.3360
57 1  0.0      2.8566  3.5870 141.6820
58 1  0.0      0.3678  5.0240 141.6820
59 1  0.0      3.6862  5.0240 144.0290
60 1  0.0      1.1973  3.5870 144.0290
61 1  0.0      9.4933  6.4609 139.3360
62 1  0.0      7.0045  7.8977 139.3360
63 1  0.0      7.8342  6.4608 141.6820
64 1  0.0      5.3453  7.8978 141.6820
65 1  0.0      8.6638  7.8977 144.0290
66 1  0.0      6.1749  6.4608 144.0290
67 1  0.0      4.5156  6.4608 139.3360
68 1  0.0      2.0268  7.8978 139.3360
69 1  0.0      2.8565  6.4608 141.6820
70 1  0.0      0.3677  7.8978 141.6820
71 1  0.0      3.6861  7.8978 144.0290
72 1  0.0      1.1974  6.4609 144.0290
73 1  0.0      9.4934  0.7131 146.3750
74 1  0.0      7.0047  2.1501 146.3750
75 1  0.0      7.8342  0.7132 148.7210
76 1  0.0      5.3454  2.1501 148.7210
77 1  0.0      8.6638  2.1501 151.0680
78 1  0.0      6.1750  0.7131 151.0680
79 1  0.0      4.5157  0.7132 146.3750
80 1  0.0      2.0269  2.1500 146.3750
81 1  0.0      2.8566  0.7131 148.7210
82 1  0.0      0.3678  2.1501 148.7210
83 1  0.0      3.6862  2.1502 151.0680
84 1  0.0      1.1974  0.7132 151.0680
85 1  0.0      9.4933  3.5871 146.3750
86 1  0.0      7.0045  5.0239 146.3750
87 1  0.0      7.8342  3.5870 148.7220
88 1  0.0      5.3453  5.0240 148.7210
89 1  0.0      8.6638  5.0239 151.0680
90 1  0.0      6.1750  3.5870 151.0680
91 1  0.0      4.5158  3.5869 146.3750
92 1  0.0      2.0269  5.0239 146.3750
93 1  0.0      2.8566  3.5870 148.7210
94 1  0.0      0.3678  5.0240 148.7220
95 1  0.0      3.6862  5.0240 151.0680
96 1  0.0      1.1973  3.5869 151.0680
97 1  0.0      9.4934  6.4608 146.3750
98 1  0.0      7.0046  7.8977 146.3750
99 1  0.0      7.8342  6.4608 148.7210
100 1  0.0      5.3453  7.8977 148.7210
101 1  0.0      8.6638  7.8977 151.0680
102 1  0.0      6.1749  6.4609 151.0680
103 1  0.0      4.5158  6.4609 146.3750
104 1  0.0      2.0269  7.8976 146.3750
105 1  0.0      2.8566  6.4608 148.7210
106 1  0.0      0.3678  7.8978 148.7220
107 1  0.0      3.6861  7.8977 151.0680
108 1  0.0      1.1973  6.4608 151.0680
109 1  0.0      9.4933  0.7133 153.4140
110 1  0.0      7.0045  2.1501 153.4150
111 1  0.0      7.8342  0.7133 155.7610
112 1  0.0      5.3453  2.1500 155.7610
113 1  0.0      8.6637  2.1502 158.1080
114 1  0.0      6.1751  0.7133 158.1090
115 1  0.0      4.5157  0.7131 153.4150
116 1  0.0      2.0270  2.1501 153.4140
117 1  0.0      2.8565  0.7133 155.7610
118 1  0.0      0.3677  2.1501 155.7610
119 1  0.0      3.6862  2.1501 158.1080
120 1  0.0      1.1973  0.7132 158.1080
121 1  0.0      9.4934  3.5870 153.4140
122 1  0.0      7.0046  5.0239 153.4150
123 1  0.0      7.8342  3.5871 155.7610
124 1  0.0      5.3454  5.0239 155.7610
125 1  0.0      8.6637  5.0240 158.1080
126 1  0.0      6.1749  3.5870 158.1080
127 1  0.0      4.5157  3.5871 153.4140
128 1  0.0      2.0269  5.0239 153.4140
129 1  0.0      2.8566  3.5871 155.7610
130 1  0.0      0.3678  5.0239 155.7610
131 1  0.0      3.6863  5.0240 158.1080
132 1  0.0      1.1972  3.5870 158.1080
133 1  0.0      9.4933  6.4609 153.4140
134 1  0.0      7.0045  7.8978 153.4150
135 1  0.0      7.8342  6.4609 155.7610
136 1  0.0      5.3453  7.8977 155.7610
137 1  0.0      8.6636  7.8977 158.1080
138 1  0.0      6.1751  6.4609 158.1080
139 1  0.0      4.5157  6.4609 153.4140
140 1  0.0      2.0268  7.8978 153.4140
141 1  0.0      2.8565  6.4609 155.7610
142 1  0.0      0.3677  7.8978 155.7610
143 1  0.0      3.6861  7.8977 158.1080
144 1  0.0      1.1973  6.4608 158.1080
145 1  0.0      2.0272  2.1525 160.4600
146 1  0.0      7.0049  2.1522 160.4610
147 1  0.0      2.0267  5.0231 160.4590
148 1  0.0      7.0045  5.0233 160.4590
149 1  0.0      2.0240  7.8981 160.4600
150 1  0.0      7.0019  7.8981 160.4610
151 1  0.0      4.5131  3.5872 160.4610
152 1  0.0      9.4900  3.5872 160.4610
153 1  0.0      4.5158  0.7128 160.4590
154 1  0.0      9.4930  0.7124 160.4590
155 1  0.0      4.5166  6.4632 160.4600
156 1  0.0      9.4938  6.4634 160.4600
157 1  0.0      2.8391  3.6022 162.8330
158 1  0.0      7.8151  3.6020 162.8360
159 1  0.0      2.8506  6.4649 162.8090
160 1  0.0      7.8283  6.4650 162.8120
161 1  0.0      2.8475  0.7162 162.8110
162 1  0.0      7.8258  0.7149 162.8140
163 1  0.0      5.3387  2.1542 162.8150
164 1  0.0      0.3582  2.1529 162.8100
165 1  0.0      5.3380  5.0257 162.8130
166 1  0.0      0.3584  5.0251 162.8090
167 1  0.0      5.3302  7.9144 162.8330
168 1  0.0      0.3504  7.9130 162.8330
169 1  0.0      3.6542  2.1799 165.1570
170 1  0.0      8.6304  2.1810 165.1610
171 1  0.0      3.7078  5.0325 165.1610
172 1  0.0      8.6813  5.0340 165.1630
173 1  0.0      3.6556  7.8775 165.1620
174 1  0.0      8.6284  7.8742 165.1720
175 1  0.0      6.1353  3.5612 165.1780
176 1  0.0      1.1587  3.5606 165.1610
177 1  0.0      6.1456  6.4936 165.1550
178 1  0.0      1.1688  6.4874 165.1490
179 1  0.0      6.1985  0.7249 165.1700
180 1  0.0      1.2108  0.7197 165.1610
181 1  0.0      1.9732  2.1216 167.6110
182 1  0.0      6.9539  2.1461 167.6510
183 1  0.0      2.0273  5.0086 167.3640
184 1  0.0      7.0012  5.0224 167.3710
185 1  0.0      2.0652  7.9211 167.5890
186 1  0.0      7.0369  7.9393 167.6300
187 1  0.0      4.5404  3.6142 167.6390
188 1  0.0      9.5255  3.6178 167.6090
189 1  0.0      4.4715  6.4391 167.6170
190 1  0.0      9.4419  6.4516 167.6200
191 1  0.0      4.5197  0.7087 167.3740
192 1  0.0      9.4853  0.7114 167.3800
193 2  0.0      3.3560  2.6482 169.7910
194 3  0.0      2.7145  3.4338 171.3160
195 3  0.0      3.3145  2.7300 172.5410
196 3  0.0      2.7760  3.3366 173.8410
197 3  0.0      3.3934  2.6638 175.0690
198 3  0.0      2.8191  3.2374 176.3640
199 3  0.0      3.4464  2.5887 177.5870
200 4  0.0      1.6206  3.3810 171.3780
201 4  0.0      2.9640  4.5008 171.3660
202 4  0.0      4.4094  2.8154 172.5330
203 4  0.0      3.0748  1.6582 172.5250
204 4  0.0      1.6851  3.2270 173.8710
205 4  0.0      2.9944  4.4113 173.8650
206 4  0.0      4.4812  2.8029 175.0540
207 4  0.0      3.2052  1.5839 175.0310
208 4  0.0      1.7345  3.0806 176.3900
209 4  0.0      2.9915  4.3193 176.4020
210 4  0.0      3.2751  1.5075 177.5900
211 4  0.0      3.0109  3.0040 178.5020
212 4  0.0      4.5262  2.7660 177.6150
213 2  0.0      8.3826  2.7149 169.7980
214 3  0.0      7.8119  3.5533 171.3240
215 3  0.0      8.3484  2.8000 172.5490
216 3  0.0      7.8647  3.4512 173.8490
217 3  0.0      8.4212  2.7272 175.0770
218 3  0.0      7.8990  3.3486 176.3720
219 3  0.0      8.4674  2.6478 177.5950
220 4  0.0      6.7176  3.5960 171.3860
221 4  0.0      8.1533  4.5946 171.3740
222 4  0.0      9.4465  2.7898 172.5410
223 4  0.0      8.0163  1.7532 172.5330
224 4  0.0      6.7684  3.4370 173.8790
225 4  0.0      8.1759  4.5028 173.8730
226 4  0.0      9.5170  2.7711 175.0620
227 4  0.0      8.1398  1.6677 175.0390
228 4  0.0      6.8048  3.2868 176.3980
229 4  0.0      8.1650  4.4114 176.4100
230 4  0.0      8.2027  1.5856 177.5980
231 4  0.0      8.0698  3.0995 178.5090
232 4  0.0      9.5586  2.7304 177.6220
233 2  0.0      5.8705  6.9790 169.7870
234 3  0.0      5.2393  7.7729 171.3120
235 3  0.0      5.8301  7.0613 172.5370
236 3  0.0      5.2995  7.6749 173.8370
237 3  0.0      5.9081  6.9941 175.0650
238 3  0.0      5.3413  7.5752 176.3600
239 3  0.0      5.9601  6.9183 177.5830
240 4  0.0      4.1448  7.7344 171.3740
241 4  0.0      5.5027  0.2166 171.3620
242 4  0.0      6.9260  7.1324 172.5290
243 4  0.0      5.5764  5.9928 172.5210
244 4  0.0      4.2073  7.5796 173.8670
245 4  0.0      5.5320  0.1266 173.8610
246 4  0.0      6.9976  7.1191 175.0500
247 4  0.0      5.7059  5.9167 175.0270
248 4  0.0      4.2548  7.4325 176.3860
249 4  0.0      5.5279  0.0347 176.3980
250 4  0.0      5.7747  5.8394 177.5860
251 4  0.0      5.5301  7.3393 178.4980
252 4  0.0      7.0422  7.0815 177.6110
253 2  0.0      0.9439  6.9546 169.7640
254 3  0.0      0.3779  7.7962 171.2900
255 3  0.0      0.9102  7.0399 172.5140
256 3  0.0      0.4301  7.6938 173.8150
257 3  0.0      0.9826  6.9667 175.0420
258 3  0.0      0.4639  7.5910 176.3370
259 3  0.0      1.0284  6.8870 177.5610
260 4  0.0      9.2438  7.8449 171.3510
261 4  0.0      0.7250  0.2156 171.3390
262 4  0.0      2.0082  7.0235 172.5060
263 4  0.0      0.5723  5.9949 172.4990
264 4  0.0      9.2937  7.6856 173.8450
265 4  0.0      0.7471  0.1236 173.8390
266 4  0.0      2.0786  7.0045 175.0280
267 4  0.0      0.6953  5.9088 175.0050
268 4  0.0      9.3294  7.5352 176.3640
269 4  0.0      0.7357  0.0323 176.3760
270 4  0.0      0.7578  5.8263 177.5640
271 4  0.0      0.6333  7.3409 178.4750
272 4  0.0      2.1200  6.9636 177.5880
273 1  0.0      9.4933  9.3332 132.2950
274 1  0.0      7.0045  10.7701 132.2950
275 1  0.0      7.8342  9.3333 134.6440
276 1  0.0      5.3454  10.7702 134.6440
277 1  0.0      8.6637  10.7701 136.9890
278 1  0.0      6.1749  9.3333 136.9890
279 1  0.0      4.5157  9.3331 132.2950
280 1  0.0      2.0270  10.7702 132.2950
281 1  0.0      2.8567  9.3332 134.6440
282 1  0.0      0.3678  10.7701 134.6440
283 1  0.0      3.6862  10.7701 136.9890
284 1  0.0      1.1974  9.3333 136.9890
285 1  0.0      9.4933  12.2069 132.2950
286 1  0.0      7.0046  13.6439 132.2950
287 1  0.0      7.8342  12.2070 134.6440
288 1  0.0      5.3453  13.6439 134.6440
289 1  0.0      8.6638  13.6439 136.9890
290 1  0.0      6.1750  12.2070 136.9890
291 1  0.0      4.5157  12.2071 132.2950
292 1  0.0      2.0269  13.6440 132.2950
293 1  0.0      2.8565  12.2070 134.6440
294 1  0.0      0.3678  13.6439 134.6440
295 1  0.0      3.6861  13.6439 136.9890
296 1  0.0      1.1973  12.2071 136.9890
297 1  0.0      9.4934  15.0809 132.2950
298 1  0.0      7.0045  16.5177 132.2950
299 1  0.0      7.8343  15.0808 134.6440
300 1  0.0      5.3454  16.5177 134.6440
301 1  0.0      8.6638  16.5178 136.9890
302 1  0.0      6.1750  15.0809 136.9890
303 1  0.0      4.5157  15.0808 132.2950
304 1  0.0      2.0269  16.5177 132.2950
305 1  0.0      2.8567  15.0808 134.6440
306 1  0.0      0.3678  16.5177 134.6440
307 1  0.0      3.6861  16.5177 136.9890
308 1  0.0      1.1973  15.0809 136.9890
309 1  0.0      9.4933  9.3333 139.3360
310 1  0.0      7.0045  10.7700 139.3360
311 1  0.0      7.8342  9.3331 141.6820
312 1  0.0      5.3454  10.7701 141.6820
313 1  0.0      8.6638  10.7701 144.0290
314 1  0.0      6.1750  9.3332 144.0290
315 1  0.0      4.5157  9.3332 139.3360
316 1  0.0      2.0270  10.7701 139.3360
317 1  0.0      2.8565  9.3332 141.6820
318 1  0.0      0.3677  10.7701 141.6820
319 1  0.0      3.6861  10.7702 144.0290
320 1  0.0      1.1972  9.3332 144.0290
321 1  0.0      9.4933  12.2071 139.3360
322 1  0.0      7.0045  13.6439 139.3360
323 1  0.0      7.8341  12.2071 141.6820
324 1  0.0      5.3453  13.6439 141.6820
325 1  0.0      8.6638  13.6440 144.0290
326 1  0.0      6.1749  12.2070 144.0290
327 1  0.0      4.5157  12.2070 139.3360
328 1  0.0      2.0268  13.6439 139.3360
329 1  0.0      2.8566  12.2070 141.6820
330 1  0.0      0.3678  13.6440 141.6820
331 1  0.0      3.6862  13.6440 144.0290
332 1  0.0      1.1973  12.2070 144.0290
333 1  0.0      9.4933  15.0809 139.3360
334 1  0.0      7.0045  16.5177 139.3360
335 1  0.0      7.8342  15.0808 141.6820
336 1  0.0      5.3453  16.5178 141.6820
337 1  0.0      8.6638  16.5177 144.0290
338 1  0.0      6.1749  15.0808 144.0290
339 1  0.0      4.5156  15.0808 139.3360
340 1  0.0      2.0268  16.5178 139.3360
341 1  0.0      2.8565  15.0808 141.6820
342 1  0.0      0.3677  16.5178 141.6820
343 1  0.0      3.6861  16.5178 144.0290
344 1  0.0      1.1974  15.0809 144.0290
345 1  0.0      9.4934  9.3331 146.3750
346 1  0.0      7.0047  10.7701 146.3750
347 1  0.0      7.8342  9.3332 148.7210
348 1  0.0      5.3454  10.7701 148.7210
349 1  0.0      8.6638  10.7701 151.0680
350 1  0.0      6.1750  9.3331 151.0680
351 1  0.0      4.5157  9.3332 146.3750
352 1  0.0      2.0269  10.7700 146.3750
353 1  0.0      2.8566  9.3331 148.7210
354 1  0.0      0.3678  10.7701 148.7210
355 1  0.0      3.6862  10.7702 151.0680
356 1  0.0      1.1974  9.3332 151.0680
357 1  0.0      9.4933  12.2071 146.3750
358 1  0.0      7.0045  13.6439 146.3750
359 1  0.0      7.8342  12.2070 148.7220
360 1  0.0      5.3453  13.6440 148.7210
361 1  0.0      8.6638  13.6439 151.0680
362 1  0.0      6.1750  12.2070 151.0680
363 1  0.0      4.5158  12.2069 146.3750
364 1  0.0      2.0269  13.6439 146.3750
365 1  0.0      2.8566  12.2070 148.7210
366 1  0.0      0.3678  13.6440 148.7220
367 1  0.0      3.6862  13.6440 151.0680
368 1  0.0      1.1973  12.2069 151.0680
369 1  0.0      9.4934  15.0808 146.3750
370 1  0.0      7.0046  16.5177 146.3750
371 1  0.0      7.8342  15.0808 148.7210
372 1  0.0      5.3453  16.5177 148.7210
373 1  0.0      8.6638  16.5177 151.0680
374 1  0.0      6.1749  15.0809 151.0680
375 1  0.0      4.5158  15.0809 146.3750
376 1  0.0      2.0269  16.5176 146.3750
377 1  0.0      2.8566  15.0808 148.7210
378 1  0.0      0.3678  16.5178 148.7220
379 1  0.0      3.6861  16.5177 151.0680
380 1  0.0      1.1973  15.0808 151.0680
381 1  0.0      9.4933  9.3333 153.4140
382 1  0.0      7.0045  10.7701 153.4150
383 1  0.0      7.8342  9.3333 155.7610
384 1  0.0      5.3453  10.7700 155.7610
385 1  0.0      8.6637  10.7702 158.1080
386 1  0.0      6.1751  9.3333 158.1090
387 1  0.0      4.5157  9.3331 153.4150
388 1  0.0      2.0270  10.7701 153.4140
389 1  0.0      2.8565  9.3333 155.7610
390 1  0.0      0.3677  10.7701 155.7610
391 1  0.0      3.6862  10.7701 158.1080
392 1  0.0      1.1973  9.3332 158.1080
393 1  0.0      9.4934  12.2070 153.4140
394 1  0.0      7.0046  13.6439 153.4150
395 1  0.0      7.8342  12.2071 155.7610
396 1  0.0      5.3454  13.6439 155.7610
397 1  0.0      8.6637  13.6440 158.1080
398 1  0.0      6.1749  12.2070 158.1080
399 1  0.0      4.5157  12.2071 153.4140
400 1  0.0      2.0269  13.6439 153.4140
401 1  0.0      2.8566  12.2071 155.7610
402 1  0.0      0.3678  13.6439 155.7610
403 1  0.0      3.6863  13.6440 158.1080
404 1  0.0      1.1972  12.2070 158.1080
405 1  0.0      9.4933  15.0809 153.4140
406 1  0.0      7.0045  16.5178 153.4150
407 1  0.0      7.8342  15.0809 155.7610
408 1  0.0      5.3453  16.5177 155.7610
409 1  0.0      8.6636  16.5177 158.1080
410 1  0.0      6.1751  15.0809 158.1080
411 1  0.0      4.5157  15.0809 153.4140
412 1  0.0      2.0268  16.5178 153.4140
413 1  0.0      2.8565  15.0809 155.7610
414 1  0.0      0.3677  16.5178 155.7610
415 1  0.0      3.6861  16.5177 158.1080
416 1  0.0      1.1973  15.0808 158.1080
417 1  0.0      2.0272  10.7725 160.4600
418 1  0.0      7.0049  10.7722 160.4610
419 1  0.0      2.0267  13.6431 160.4590
420 1  0.0      7.0045  13.6433 160.4590
421 1  0.0      2.0240  16.5181 160.4600
422 1  0.0      7.0019  16.5181 160.4610
423 1  0.0      4.5131  12.2072 160.4610
424 1  0.0      9.4900  12.2072 160.4610
425 1  0.0      4.5158  9.3328 160.4590
426 1  0.0      9.4930  9.3324 160.4590
427 1  0.0      4.5166  15.0832 160.4600
428 1  0.0      9.4938  15.0834 160.4600
429 1  0.0      2.8391  12.2222 162.8330
430 1  0.0      7.8151  12.2220 162.8360
431 1  0.0      2.8506  15.0849 162.8090
432 1  0.0      7.8283  15.0850 162.8120
433 1  0.0      2.8475  9.3362 162.8110
434 1  0.0      7.8258  9.3349 162.8140
435 1  0.0      5.3387  10.7742 162.8150
436 1  0.0      0.3582  10.7729 162.8100
437 1  0.0      5.3380  13.6457 162.8130
438 1  0.0      0.3584  13.6451 162.8090
439 1  0.0      5.3302  16.5344 162.8330
440 1  0.0      0.3504  16.5330 162.8330
441 1  0.0      3.6542  10.7999 165.1570
442 1  0.0      8.6304  10.8010 165.1610
443 1  0.0      3.7078  13.6525 165.1610
444 1  0.0      8.6813  13.6540 165.1630
445 1  0.0      3.6556  16.4975 165.1620
446 1  0.0      8.6284  16.4942 165.1720
447 1  0.0      6.1353  12.1812 165.1780
448 1  0.0      1.1587  12.1806 165.1610
449 1  0.0      6.1456  15.1136 165.1550
450 1  0.0      1.1688  15.1074 165.1490
451 1  0.0      6.1985  9.3449 165.1700
452 1  0.0      1.2108  9.3397 165.1610
453 1  0.0      1.9732  10.7416 167.6110
454 1  0.0      6.9539  10.7661 167.6510
455 1  0.0      2.0273  13.6286 167.3640
456 1  0.0      7.0012  13.6424 167.3710
457 1  0.0      2.0652  16.5411 167.5890
458 1  0.0      7.0369  16.5593 167.6300
459 1  0.0      4.5404  12.2342 167.6390
460 1  0.0      9.5255  12.2378 167.6090
461 1  0.0      4.4715  15.0591 167.6170
462 1  0.0      9.4419  15.0716 167.6200
463 1  0.0      4.5197  9.3287 167.3740
464 1  0.0      9.4853  9.3314 167.3800
465 2  0.0      3.3560  11.2682 169.7910
466 3  0.0      2.7145  12.0538 171.3160
467 3  0.0      3.3145  11.3500 172.5410
468 3  0.0      2.7760  11.9566 173.8410
469 3  0.0      3.3934  11.2838 175.0690
470 3  0.0      2.8191  11.8574 176.3640
471 3  0.0      3.4464  11.2087 177.5870
472 4  0.0      1.6206  12.0010 171.3780
473 4  0.0      2.9640  13.1208 171.3660
474 4  0.0      4.4094  11.4354 172.5330
475 4  0.0      3.0748  10.2782 172.5250
476 4  0.0      1.6851  11.8470 173.8710
477 4  0.0      2.9944  13.0313 173.8650
478 4  0.0      4.4812  11.4229 175.0540
479 4  0.0      3.2052  10.2039 175.0310
480 4  0.0      1.7345  11.7006 176.3900
481 4  0.0      2.9915  12.9393 176.4020
482 4  0.0      3.2751  10.1275 177.5900
483 4  0.0      3.0109  11.6240 178.5020
484 4  0.0      4.5262  11.3860 177.6150
485 2  0.0      8.3826  11.3349 169.7980
486 3  0.0      7.8119  12.1733 171.3240
487 3  0.0      8.3484  11.4200 172.5490
488 3  0.0      7.8647  12.0712 173.8490
489 3  0.0      8.4212  11.3472 175.0770
490 3  0.0      7.8990  11.9686 176.3720
491 3  0.0      8.4674  11.2678 177.5950
492 4  0.0      6.7176  12.2160 171.3860
493 4  0.0      8.1533  13.2146 171.3740
494 4  0.0      9.4465  11.4098 172.5410
495 4  0.0      8.0163  10.3732 172.5330
496 4  0.0      6.7684  12.0570 173.8790
497 4  0.0      8.1759  13.1228 173.8730
498 4  0.0      9.5170  11.3911 175.0620
499 4  0.0      8.1398  10.2877 175.0390
500 4  0.0      6.8048  11.9068 176.3980
501 4  0.0      8.1650  13.0314 176.4100
502 4  0.0      8.2027  10.2056 177.5980
503 4  0.0      8.0698  11.7195 178.5090
504 4  0.0      9.5586  11.3504 177.6220
505 2  0.0      5.8705  15.5990 169.7870
506 3  0.0      5.2393  16.3929 171.3120
507 3  0.0      5.8301  15.6813 172.5370
508 3  0.0      5.2995  16.2949 173.8370
509 3  0.0      5.9081  15.6141 175.0650
510 3  0.0      5.3413  16.1952 176.3600
511 3  0.0      5.9601  15.5383 177.5830
512 4  0.0      4.1448  16.3544 171.3740
513 4  0.0      5.5027  8.8366 171.3620
514 4  0.0      6.9260  15.7524 172.5290
515 4  0.0      5.5764  14.6128 172.5210
516 4  0.0      4.2073  16.1996 173.8670
517 4  0.0      5.5320  8.7466 173.8610
518 4  0.0      6.9976  15.7391 175.0500
519 4  0.0      5.7059  14.5367 175.0270
520 4  0.0      4.2548  16.0525 176.3860
521 4  0.0      5.5279  8.6547 176.3980
522 4  0.0      5.7747  14.4594 177.5860
523 4  0.0      5.5301  15.9593 178.4980
524 4  0.0      7.0422  15.7015 177.6110
525 2  0.0      0.9439  15.5746 169.7640
526 3  0.0      0.3779  16.4162 171.2900
527 3  0.0      0.9102  15.6599 172.5140
528 3  0.0      0.4301  16.3138 173.8150
529 3  0.0      0.9826  15.5867 175.0420
530 3  0.0      0.4639  16.2110 176.3370
531 3  0.0      1.0284  15.5070 177.5610
532 4  0.0      9.2438  16.4649 171.3510
533 4  0.0      0.7250  8.8356 171.3390
534 4  0.0      2.0082  15.6435 172.5060
535 4  0.0      0.5723  14.6149 172.4990
536 4  0.0      9.2937  16.3056 173.8450
537 4  0.0      0.7471  8.7436 173.8390
538 4  0.0      2.0786  15.6245 175.0280
539 4  0.0      0.6953  14.5288 175.0050
540 4  0.0      9.3294  16.1552 176.3640
541 4  0.0      0.7357  8.6523 176.3760
542 4  0.0      0.7578  14.4463 177.5640
543 4  0.0      0.6333  15.9609 178.4750
544 4  0.0      2.1200  15.5836 177.5880
545 1  0.0      9.4933  17.9532 132.2950
546 1  0.0      7.0045  19.3901 132.2950
547 1  0.0      7.8342  17.9533 134.6440
548 1  0.0      5.3454  19.3902 134.6440
549 1  0.0      8.6637  19.3901 136.9890
550 1  0.0      6.1749  17.9533 136.9890
551 1  0.0      4.5157  17.9531 132.2950
552 1  0.0      2.0270  19.3902 132.2950
553 1  0.0      2.8567  17.9532 134.6440
554 1  0.0      0.3678  19.3901 134.6440
555 1  0.0      3.6862  19.3901 136.9890
556 1  0.0      1.1974  17.9533 136.9890
557 1  0.0      9.4933  20.8269 132.2950
558 1  0.0      7.0046  22.2639 132.2950
559 1  0.0      7.8342  20.8270 134.6440
560 1  0.0      5.3453  22.2639 134.6440
561 1  0.0      8.6638  22.2639 136.9890
562 1  0.0      6.1750  20.8270 136.9890
563 1  0.0      4.5157  20.8271 132.2950
564 1  0.0      2.0269  22.2640 132.2950
565 1  0.0      2.8565  20.8270 134.6440
566 1  0.0      0.3678  22.2639 134.6440
567 1  0.0      3.6861  22.2639 136.9890
568 1  0.0      1.1973  20.8271 136.9890
569 1  0.0      9.4934  23.7009 132.2950
570 1  0.0      7.0045  25.1377 132.2950
571 1  0.0      7.8343  23.7008 134.6440
572 1  0.0      5.3454  25.1377 134.6440
573 1  0.0      8.6638  25.1378 136.9890
574 1  0.0      6.1750  23.7009 136.9890
575 1  0.0      4.5157  23.7008 132.2950
576 1  0.0      2.0269  25.1377 132.2950
577 1  0.0      2.8567  23.7008 134.6440
578 1  0.0      0.3678  25.1377 134.6440
579 1  0.0      3.6861  25.1377 136.9890
580 1  0.0      1.1973  23.7009 136.9890
581 1  0.0      9.4933  17.9533 139.3360
582 1  0.0      7.0045  19.3900 139.3360
583 1  0.0      7.8342  17.9531 141.6820
584 1  0.0      5.3454  19.3901 141.6820
585 1  0.0      8.6638  19.3901 144.0290
586 1  0.0      6.1750  17.9532 144.0290
587 1  0.0      4.5157  17.9532 139.3360
588 1  0.0      2.0270  19.3901 139.3360
589 1  0.0      2.8565  17.9532 141.6820
590 1  0.0      0.3677  19.3901 141.6820
591 1  0.0      3.6861  19.3902 144.0290
592 1  0.0      1.1972  17.9532 144.0290
593 1  0.0      9.4933  20.8271 139.3360
594 1  0.0      7.0045  22.2639 139.3360
595 1  0.0      7.8341  20.8271 141.6820
596 1  0.0      5.3453  22.2639 141.6820
597 1  0.0      8.6638  22.2640 144.0290
598 1  0.0      6.1749  20.8270 144.0290
599 1  0.0      4.5157  20.8270 139.3360
600 1  0.0      2.0268  22.2639 139.3360
601 1  0.0      2.8566  20.8270 141.6820
602 1  0.0      0.3678  22.2640 141.6820
603 1  0.0      3.6862  22.2640 144.0290
604 1  0.0      1.1973  20.8270 144.0290
605 1  0.0      9.4933  23.7009 139.3360
606 1  0.0      7.0045  25.1377 139.3360
607 1  0.0      7.8342  23.7008 141.6820
608 1  0.0      5.3453  25.1378 141.6820
609 1  0.0      8.6638  25.1377 144.0290
610 1  0.0      6.1749  23.7008 144.0290
611 1  0.0      4.5156  23.7008 139.3360
612 1  0.0      2.0268  25.1378 139.3360
613 1  0.0      2.8565  23.7008 141.6820
614 1  0.0      0.3677  25.1378 141.6820
615 1  0.0      3.6861  25.1378 144.0290
616 1  0.0      1.1974  23.7009 144.0290
617 1  0.0      9.4934  17.9531 146.3750
618 1  0.0      7.0047  19.3901 146.3750
619 1  0.0      7.8342  17.9532 148.7210
620 1  0.0      5.3454  19.3901 148.7210
621 1  0.0      8.6638  19.3901 151.0680
622 1  0.0      6.1750  17.9531 151.0680
623 1  0.0      4.5157  17.9532 146.3750
624 1  0.0      2.0269  19.3900 146.3750
625 1  0.0      2.8566  17.9531 148.7210
626 1  0.0      0.3678  19.3901 148.7210
627 1  0.0      3.6862  19.3902 151.0680
628 1  0.0      1.1974  17.9532 151.0680
629 1  0.0      9.4933  20.8271 146.3750
630 1  0.0      7.0045  22.2639 146.3750
631 1  0.0      7.8342  20.8270 148.7220
632 1  0.0      5.3453  22.2640 148.7210
633 1  0.0      8.6638  22.2639 151.0680
634 1  0.0      6.1750  20.8270 151.0680
635 1  0.0      4.5158  20.8269 146.3750
636 1  0.0      2.0269  22.2639 146.3750
637 1  0.0      2.8566  20.8270 148.7210
638 1  0.0      0.3678  22.2640 148.7220
639 1  0.0      3.6862  22.2640 151.0680
640 1  0.0      1.1973  20.8269 151.0680
641 1  0.0      9.4934  23.7008 146.3750
642 1  0.0      7.0046  25.1377 146.3750
643 1  0.0      7.8342  23.7008 148.7210
644 1  0.0      5.3453  25.1377 148.7210
645 1  0.0      8.6638  25.1377 151.0680
646 1  0.0      6.1749  23.7009 151.0680
647 1  0.0      4.5158  23.7009 146.3750
648 1  0.0      2.0269  25.1376 146.3750
649 1  0.0      2.8566  23.7008 148.7210
650 1  0.0      0.3678  25.1378 148.7220
651 1  0.0      3.6861  25.1377 151.0680
652 1  0.0      1.1973  23.7008 151.0680
653 1  0.0      9.4933  17.9533 153.4140
654 1  0.0      7.0045  19.3901 153.4150
655 1  0.0      7.8342  17.9533 155.7610
656 1  0.0      5.3453  19.3900 155.7610
657 1  0.0      8.6637  19.3902 158.1080
658 1  0.0      6.1751  17.9533 158.1090
659 1  0.0      4.5157  17.9531 153.4150
660 1  0.0      2.0270  19.3901 153.4140
661 1  0.0      2.8565  17.9533 155.7610
662 1  0.0      0.3677  19.3901 155.7610
663 1  0.0      3.6862  19.3901 158.1080
664 1  0.0      1.1973  17.9532 158.1080
665 1  0.0      9.4934  20.8270 153.4140
666 1  0.0      7.0046  22.2639 153.4150
667 1  0.0      7.8342  20.8271 155.7610
668 1  0.0      5.3454  22.2639 155.7610
669 1  0.0      8.6637  22.2640 158.1080
670 1  0.0      6.1749  20.8270 158.1080
671 1  0.0      4.5157  20.8271 153.4140
672 1  0.0      2.0269  22.2639 153.4140
673 1  0.0      2.8566  20.8271 155.7610
674 1  0.0      0.3678  22.2639 155.7610
675 1  0.0      3.6863  22.2640 158.1080
676 1  0.0      1.1972  20.8270 158.1080
677 1  0.0      9.4933  23.7009 153.4140
678 1  0.0      7.0045  25.1378 153.4150
679 1  0.0      7.8342  23.7009 155.7610
680 1  0.0      5.3453  25.1377 155.7610
681 1  0.0      8.6636  25.1377 158.1080
682 1  0.0      6.1751  23.7009 158.1080
683 1  0.0      4.5157  23.7009 153.4140
684 1  0.0      2.0268  25.1378 153.4140
685 1  0.0      2.8565  23.7009 155.7610
686 1  0.0      0.3677  25.1378 155.7610
687 1  0.0      3.6861  25.1377 158.1080
688 1  0.0      1.1973  23.7008 158.1080
689 1  0.0      2.0272  19.3925 160.4600
690 1  0.0      7.0049  19.3922 160.4610
691 1  0.0      2.0267  22.2631 160.4590
692 1  0.0      7.0045  22.2633 160.4590
693 1  0.0      2.0240  25.1381 160.4600
694 1  0.0      7.0019  25.1381 160.4610
695 1  0.0      4.5131  20.8272 160.4610
696 1  0.0      9.4900  20.8272 160.4610
697 1  0.0      4.5158  17.9528 160.4590
698 1  0.0      9.4930  17.9524 160.4590
699 1  0.0      4.5166  23.7032 160.4600
700 1  0.0      9.4938  23.7034 160.4600
701 1  0.0      2.8391  20.8422 162.8330
702 1  0.0      7.8151  20.8420 162.8360
703 1  0.0      2.8506  23.7049 162.8090
704 1  0.0      7.8283  23.7050 162.8120
705 1  0.0      2.8475  17.9562 162.8110
706 1  0.0      7.8258  17.9549 162.8140
707 1  0.0      5.3387  19.3942 162.8150
708 1  0.0      0.3582  19.3929 162.8100
709 1  0.0      5.3380  22.2657 162.8130
710 1  0.0      0.3584  22.2651 162.8090
711 1  0.0      5.3302  25.1544 162.8330
712 1  0.0      0.3504  25.1530 162.8330
713 1  0.0      3.6542  19.4199 165.1570
714 1  0.0      8.6304  19.4210 165.1610
715 1  0.0      3.7078  22.2725 165.1610
716 1  0.0      8.6813  22.2740 165.1630
717 1  0.0      3.6556  25.1175 165.1620
718 1  0.0      8.6284  25.1142 165.1720
719 1  0.0      6.1353  20.8012 165.1780
720 1  0.0      1.1587  20.8006 165.1610
721 1  0.0      6.1456  23.7336 165.1550
722 1  0.0      1.1688  23.7274 165.1490
723 1  0.0      6.1985  17.9649 165.1700
724 1  0.0      1.2108  17.9597 165.1610
725 1  0.0      1.9732  19.3616 167.6110
726 1  0.0      6.9539  19.3861 167.6510
727 1  0.0      2.0273  22.2486 167.3640
728 1  0.0      7.0012  22.2624 167.3710
729 1  0.0      2.0652  25.1611 167.5890
730 1  0.0      7.0369  25.1793 167.6300
731 1  0.0      4.5404  20.8542 167.6390
732 1  0.0      9.5255  20.8578 167.6090
733 1  0.0      4.4715  23.6791 167.6170
734 1  0.0      9.4419  23.6916 167.6200
735 1  0.0      4.5197  17.9487 167.3740