#Input file for lammps
 
1536 atoms
1 atom types
 
0.0 30.5669 xlo xhi
0.0 30.5669 ylo yhi
0.0 50 zlo zhi
 
Masses
 
1 28.06
 
Atoms
 
      1 1 0     0.955205      3.57105      2.20104
      2 1 0       2.8656      3.04629       3.4832
      3 1 0      2.86562     0.955175      4.70087
      4 1 0     0.955215     0.955195      6.09506
      5 1 0     0.955195      2.85521      7.49493
      6 1 0      2.86562      2.85758      8.85064
      7 1 0       2.8656     0.955205      10.2085
      8 1 0     0.955205     0.955215      11.5619
      9 1 0     0.955205      2.86597       12.915
     10 1 0       2.8656      2.86589      14.2694
     11 1 0       2.8656     0.955205      15.6236
     12 1 0     0.955205     0.955195      16.9779
     13 1 0     0.955205      2.86559      18.3321
     14 1 0       2.8656      2.86558      19.6863
     15 1 0       2.8656     0.955455      21.0406
     16 1 0     0.955205     0.955535      22.3951
     17 1 0     0.955205      2.86559      23.7512
     18 1 0       2.8656      2.86559      25.1074
     19 1 0      2.86562     0.947165      26.4594
     20 1 0     0.955215     0.944795      27.8151
     21 1 0     0.955205      2.86553      29.1201
     22 1 0       2.8656      2.86555      30.4664
     23 1 0       2.8656      1.13597      31.8267
     24 1 0     0.955215      1.66082      33.1088
     25 1 0     0.955205      5.98088      2.20127
     26 1 0       2.8656      6.50563      3.48347
     27 1 0      2.86559      4.77606      4.84354
     28 1 0     0.955265      4.77602      6.18992
     29 1 0     0.955205      6.69691      7.49498
     30 1 0      2.86562      6.69454      8.85069
     31 1 0       2.8656      4.77604      10.2026
     32 1 0     0.955205      4.77604      11.5589
     33 1 0     0.955205      6.68614       12.915
     34 1 0       2.8656      6.68623      14.2694
     35 1 0       2.8656      4.77606      15.6238
     36 1 0     0.955205      4.77606       16.978
     37 1 0     0.955205      6.68651      18.3322
     38 1 0       2.8656      6.68651      19.6865
     39 1 0       2.8656      4.77576      21.0406
     40 1 0     0.955205      4.77567      22.3951
     41 1 0     0.955205      6.68649      23.7481
     42 1 0       2.8656      6.68649      25.1015
     43 1 0      2.86562      4.78406      26.4594
     44 1 0     0.955215      4.78643      27.8151
     45 1 0     0.955215      6.68651      29.2149
     46 1 0      2.86562      6.68652      30.6091
     47 1 0       2.8656      4.59551      31.8268
     48 1 0     0.955215      4.07066      33.1089
     49 1 0     0.955205      11.2129      2.20107
     50 1 0       2.8656      10.6881      3.48325
     51 1 0      2.86562      8.59693      4.70092
     52 1 0     0.955215      8.59697      6.09513
     53 1 0     0.955195       10.497      7.49496
     54 1 0      2.86562      10.4994      8.85069
     55 1 0       2.8656      8.59699      10.2085
     56 1 0     0.955205      8.59699       11.562
     57 1 0     0.955205      10.5078       12.915
     58 1 0       2.8656      10.5077      14.2695
     59 1 0       2.8656      8.59697      15.6236
     60 1 0     0.955205      8.59697      16.9779
     61 1 0     0.955205      10.5074      18.3321
     62 1 0       2.8656      10.5074      19.6862
     63 1 0       2.8656      8.59723      21.0406
     64 1 0     0.955205      8.59732      22.3951
     65 1 0     0.955205      10.5074      23.7511
     66 1 0       2.8656      10.5074      25.1074
     67 1 0      2.86562      8.58892      26.4593
     68 1 0     0.955205      8.58656      27.8151
     69 1 0     0.955255      10.5074      29.1201
     70 1 0       2.8656      10.5074      30.4666
     71 1 0       2.8656      8.77791      31.8266
     72 1 0     0.955205      9.30265      33.1088
     73 1 0     0.955205      13.6227      2.20122
     74 1 0       2.8656      14.1474      3.48344
     75 1 0      2.86559      12.4179      4.84354
     76 1 0     0.955285      12.4179      6.18994
     77 1 0     0.955195      14.3386        7.495
     78 1 0      2.86562      14.3363      8.85069
     79 1 0       2.8656      12.4179      10.2027
     80 1 0     0.955205      12.4179      11.5589
     81 1 0     0.955205      14.3279       12.915
     82 1 0       2.8656       14.328      14.2694
     83 1 0       2.8656      12.4179      15.6238
     84 1 0     0.955205      12.4179       16.978
     85 1 0     0.955205      14.3283      18.3322
     86 1 0       2.8656      14.3283      19.6864
     87 1 0       2.8656      12.4176      21.0406
     88 1 0     0.955205      12.4175       22.395
     89 1 0     0.955205      14.3282      23.7481
     90 1 0       2.8656      14.3282      25.1015
     91 1 0      2.86562      12.4259      26.4593
     92 1 0     0.955205      12.4282      27.8151
     93 1 0     0.955215      14.3282      29.2149
     94 1 0      2.86562      14.3283      30.6091
     95 1 0       2.8656      12.2371      31.8267
     96 1 0     0.955205      11.7125       33.109
     97 1 0     0.955205      18.8544      2.20106
     98 1 0       2.8656      18.3297      3.48328
     99 1 0      2.86562      16.2386      4.70096
    100 1 0     0.955215      16.2386      6.09513
    101 1 0     0.955205      18.1386      7.49498
    102 1 0      2.86562       18.141      8.85069
    103 1 0       2.8656      16.2386      10.2085
    104 1 0     0.955205      16.2387       11.562
    105 1 0     0.955205      18.1494       12.915
    106 1 0       2.8656      18.1493      14.2695
    107 1 0       2.8656      16.2386      15.6236
    108 1 0     0.955205      16.2386      16.9779
    109 1 0     0.955205       18.149      18.3321
    110 1 0       2.8656       18.149      19.6862
    111 1 0       2.8656      16.2389      21.0406
    112 1 0     0.955205       16.239       22.395
    113 1 0     0.955205       18.149      23.7511
    114 1 0       2.8656       18.149      25.1074
    115 1 0      2.86562      16.2306      26.4593
    116 1 0     0.955195      16.2282       27.815
    117 1 0     0.955285       18.149      29.1201
    118 1 0      2.86559       18.149      30.4665
    119 1 0       2.8656      16.4195      31.8266
    120 1 0     0.955205      16.9442      33.1088
    121 1 0     0.955205      21.2642      2.20119
    122 1 0       2.8656       21.789      3.48342
    123 1 0       2.8656      20.0594      4.84345
    124 1 0     0.955245      20.0595      6.18991
    125 1 0     0.955205      21.9803      7.49496
    126 1 0      2.86562       21.978      8.85069
    127 1 0       2.8656      20.0595      10.2027
    128 1 0     0.955205      20.0595      11.5589
    129 1 0     0.955205      21.9696       12.915
    130 1 0       2.8656      21.9697      14.2694
    131 1 0       2.8656      20.0595      15.6238
    132 1 0     0.955205      20.0595       16.978
    133 1 0     0.955205      21.9699      18.3322
    134 1 0       2.8656      21.9699      19.6864
    135 1 0       2.8656      20.0592      21.0406
    136 1 0     0.955205      20.0591       22.395
    137 1 0     0.955205      21.9699      23.7481
    138 1 0       2.8656      21.9699      25.1015
    139 1 0      2.86562      20.0675      26.4593
    140 1 0     0.955195      20.0699      27.8151
    141 1 0     0.955215      21.9699      29.2149
    142 1 0      2.86562        21.97      30.6091
    143 1 0       2.8656      19.8788      31.8268
    144 1 0     0.955205       19.354       33.109
    145 1 0     0.955215      26.4962       2.2011
    146 1 0       2.8656      25.9714      3.48326
    147 1 0      2.86562      23.8803       4.7009
    148 1 0     0.955215      23.8804      6.09511
    149 1 0     0.955205      25.7805      7.49495
    150 1 0      2.86562      25.7828      8.85068
    151 1 0       2.8656      23.8804      10.2085
    152 1 0     0.955205      23.8804      11.5619
    153 1 0     0.955205      25.7912       12.915
    154 1 0       2.8656      25.7911      14.2694
    155 1 0       2.8656      23.8804      15.6236
    156 1 0     0.955205      23.8804      16.9779
    157 1 0     0.955205      25.7908      18.3321
    158 1 0       2.8656      25.7908      19.6862
    159 1 0       2.8656      23.8807      21.0406
    160 1 0     0.955205      23.8807      22.3951
    161 1 0     0.955205      25.7909      23.7512
    162 1 0       2.8656      25.7909      25.1074
    163 1 0      2.86562      23.8724      26.4593
    164 1 0     0.955205        23.87      27.8151
    165 1 0     0.955265      25.7909      29.1201
    166 1 0       2.8656      25.7908      30.4665
    167 1 0       2.8656      24.0613      31.8265
    168 1 0     0.955205       24.586      33.1088
    169 1 0     0.955215      28.9061      2.20119
    170 1 0       2.8656      29.4309      3.48335
    171 1 0       2.8656      27.7013      4.84359
    172 1 0     0.955225      27.7013      6.18992
    173 1 0     0.955215      29.6221      7.49493
    174 1 0      2.86562      29.6197      8.85064
    175 1 0       2.8656      27.7013      10.2026
    176 1 0     0.955205      27.7013      11.5589
    177 1 0     0.955205      29.6114       12.915
    178 1 0       2.8656      29.6114      14.2694
    179 1 0       2.8656      27.7013      15.6238
    180 1 0     0.955205      27.7013       16.978
    181 1 0     0.955205      29.6117      18.3322
    182 1 0       2.8656      29.6117      19.6864
    183 1 0       2.8656       27.701      21.0406
    184 1 0     0.955205      27.7009      22.3951
    185 1 0     0.955205      29.6117      23.7482
    186 1 0       2.8656      29.6117      25.1016
    187 1 0      2.86562      27.7093      26.4594
    188 1 0     0.955195      27.7117      27.8151
    189 1 0     0.955215      29.6117       29.215
    190 1 0      2.86562      29.6117      30.6092
    191 1 0       2.8656      27.5206      31.8268
    192 1 0     0.955205      26.9958       33.109
    193 1 0      4.77607      3.57105      2.20111
    194 1 0      6.68652      3.04619      3.48319
    195 1 0      6.68651     0.955215      4.70092
    196 1 0      4.77604     0.955205      6.09506
    197 1 0      4.77604      2.85521      7.49493
    198 1 0      6.68649      2.85758      8.85065
    199 1 0      6.68649     0.955205      10.2085
    200 1 0      4.77602     0.955215      11.5619
    201 1 0      4.77604      2.86596       12.915
    202 1 0      6.68649      2.86589      14.2694
    203 1 0      6.68649     0.955205      15.6236
    204 1 0      4.77604     0.955195      16.9779
    205 1 0      4.77604      2.86559      18.3321
    206 1 0      6.68649      2.86558      19.6862
    207 1 0      6.68649     0.955455      21.0406
    208 1 0      4.77604     0.955535       22.395
    209 1 0      4.77604      2.86559      23.7512
    210 1 0      6.68649      2.86559      25.1074
    211 1 0      6.68649     0.947175      26.4594
    212 1 0      4.77604     0.944795      27.8151
    213 1 0      4.77607      2.86553      29.1201
    214 1 0      6.68651      2.86555      30.4665
    215 1 0      6.68652       1.1361      31.8266
    216 1 0      4.77606      1.66082      33.1088
    217 1 0      4.77607      5.98088      2.20134
    218 1 0      6.68652       6.5057      3.48345
    219 1 0      6.68651      4.77606      4.84363
    220 1 0      4.77604      4.77604      6.18989
    221 1 0      4.77604      6.69691      7.49498
    222 1 0      6.68649      6.69454       8.8507
    223 1 0      6.68649      4.77604      10.2027
    224 1 0      4.77604      4.77604      11.5589
    225 1 0      4.77604      6.68614       12.915
    226 1 0      6.68649      6.68623      14.2695
    227 1 0      6.68649      4.77606      15.6238
    228 1 0      4.77604      4.77606       16.978
    229 1 0      4.77604      6.68651      18.3322
    230 1 0      6.68649      6.68651      19.6864
    231 1 0      6.68649      4.77576      21.0406
    232 1 0      4.77604      4.77567       22.395
    233 1 0      4.77604      6.68649      23.7481
    234 1 0      6.68649      6.68649      25.1015
    235 1 0      6.68649      4.78406      26.4594
    236 1 0      4.77604      4.78643      27.8151
    237 1 0      4.77604      6.68651      29.2149
    238 1 0      6.68651      6.68658      30.6091
    239 1 0      6.68652      4.59539      31.8267
    240 1 0      4.77606      4.07064      33.1089
    241 1 0      4.77607      11.2129      2.20114
    242 1 0      6.68652      10.6879      3.48317
    243 1 0      6.68651      8.59694      4.70097
    244 1 0      4.77604      8.59697      6.09513
    245 1 0      4.77604       10.497      7.49498
    246 1 0      6.68649      10.4994       8.8507
    247 1 0      6.68649      8.59699      10.2086
    248 1 0      4.77604      8.59699       11.562
    249 1 0      4.77604      10.5078      12.9151
    250 1 0      6.68649      10.5077      14.2695
    251 1 0      6.68649      8.59697      15.6236
    252 1 0      4.77604      8.59697      16.9779
    253 1 0      4.77604      10.5074      18.3321
    254 1 0      6.68649      10.5074      19.6862
    255 1 0      6.68649      8.59723      21.0406
    256 1 0      4.77604      8.59732       22.395
    257 1 0      4.77604      10.5074      23.7511
    258 1 0      6.68649      10.5074      25.1074
    259 1 0      6.68649      8.58892      26.4593
    260 1 0      4.77604      8.58656      27.8151
    261 1 0      4.77604      10.5074      29.1202
    262 1 0      6.68651      10.5074      30.4665
    263 1 0      6.68652      8.77786      31.8266
    264 1 0      4.77606      9.30265      33.1088
    265 1 0      4.77607      13.6227      2.20131
    266 1 0      6.68652      14.1476      3.48337
    267 1 0      6.68652      12.4179      4.84375
    268 1 0      4.77602      12.4179      6.18991
    269 1 0      4.77604      14.3387        7.495
    270 1 0      6.68649      14.3363      8.85071
    271 1 0      6.68649      12.4179      10.2027
    272 1 0      4.77604      12.4179       11.559
    273 1 0      4.77604      14.3279      12.9151
    274 1 0      6.68649       14.328      14.2695
    275 1 0      6.68649      12.4179      15.6239
    276 1 0      4.77604      12.4179       16.978
    277 1 0      4.77604      14.3283      18.3322
    278 1 0      6.68649      14.3283      19.6864
    279 1 0      6.68649      12.4176      21.0406
    280 1 0      4.77604      12.4175       22.395
    281 1 0      4.77604      14.3282      23.7481
    282 1 0      6.68649      14.3282      25.1015
    283 1 0      6.68649      12.4259      26.4593
    284 1 0      4.77604      12.4282       27.815
    285 1 0      4.77604      14.3282      29.2149
    286 1 0      6.68651      14.3283       30.609
    287 1 0      6.68652      12.2372      31.8267
    288 1 0      4.77607      11.7125      33.1089
    289 1 0      4.77606      18.8544      2.20114
    290 1 0      6.68652      18.3297       3.4833
    291 1 0      6.68651      16.2385      4.70099
    292 1 0      4.77604      16.2386      6.09513
    293 1 0      4.77604      18.1386      7.49498
    294 1 0      6.68649       18.141      8.85069
    295 1 0      6.68649      16.2386      10.2086
    296 1 0      4.77604      16.2387       11.562
    297 1 0      4.77604      18.1494      12.9151
    298 1 0      6.68649      18.1493      14.2695
    299 1 0      6.68649      16.2386      15.6237
    300 1 0      4.77604      16.2386      16.9779
    301 1 0      4.77604       18.149      18.3321
    302 1 0      6.68649       18.149      19.6862
    303 1 0      6.68649      16.2389      21.0406
    304 1 0      4.77604       16.239       22.395
    305 1 0      4.77604       18.149      23.7511
    306 1 0      6.68649       18.149      25.1074
    307 1 0      6.68649      16.2306      26.4593
    308 1 0      4.77604      16.2282       27.815
    309 1 0      4.77602       18.149      29.1201
    310 1 0      6.68652       18.149      30.4663
    311 1 0      6.68652      16.4193      31.8267
    312 1 0      4.77607      16.9442      33.1087
    313 1 0      4.77606      21.2642      2.20127
    314 1 0      6.68652       21.789      3.48345
    315 1 0      6.68651      20.0594      4.84349
    316 1 0      4.77604      20.0595      6.18987
    317 1 0      4.77604      21.9803      7.49496
    318 1 0      6.68649       21.978      8.85069
    319 1 0      6.68649      20.0595      10.2027
    320 1 0      4.77604      20.0595      11.5589
    321 1 0      4.77604      21.9696       12.915
    322 1 0      6.68649      21.9697      14.2695
    323 1 0      6.68649      20.0595      15.6238
    324 1 0      4.77604      20.0595       16.978
    325 1 0      4.77604      21.9699      18.3322
    326 1 0      6.68649      21.9699      19.6864
    327 1 0      6.68649      20.0592      21.0406
    328 1 0      4.77604      20.0591       22.395
    329 1 0      4.77604      21.9699      23.7481
    330 1 0      6.68649      21.9699      25.1015
    331 1 0      6.68649      20.0675      26.4593
    332 1 0      4.77604      20.0699      27.8151
    333 1 0      4.77604      21.9699      29.2149
    334 1 0      6.68651      21.9699      30.6091
    335 1 0      6.68652       19.879      31.8269
    336 1 0      4.77607       19.354      33.1089
    337 1 0      4.77606      26.4962      2.20118
    338 1 0      6.68652      25.9715      3.48332
    339 1 0      6.68651      23.8803      4.70094
    340 1 0      4.77604      23.8804      6.09511
    341 1 0      4.77604      25.7805      7.49496
    342 1 0      6.68649      25.7828      8.85068
    343 1 0      6.68649      23.8804      10.2085
    344 1 0      4.77604      23.8804       11.562
    345 1 0      4.77604      25.7912       12.915
    346 1 0      6.68649      25.7911      14.2694
    347 1 0      6.68649      23.8804      15.6236
    348 1 0      4.77604      23.8804      16.9779
    349 1 0      4.77604      25.7908      18.3321
    350 1 0      6.68649      25.7908      19.6862
    351 1 0      6.68649      23.8807      21.0406
    352 1 0      4.77604      23.8807       22.395
    353 1 0      4.77604      25.7909      23.7512
    354 1 0      6.68649      25.7909      25.1074
    355 1 0      6.68649      23.8724      26.4593
    356 1 0      4.77604        23.87      27.8151
    357 1 0      4.77604      25.7909      29.1201
    358 1 0      6.68651      25.7908      30.4664
    359 1 0      6.68652      24.0612      31.8266
    360 1 0      4.77607       24.586      33.1087
    361 1 0      4.77606      28.9061      2.20127
    362 1 0      6.68652      29.4308      3.48342
    363 1 0      6.68651      27.7013      4.84351
    364 1 0      4.77606      27.7013      6.18989
    365 1 0      4.77604      29.6221      7.49493
    366 1 0      6.68649      29.6197      8.85065
    367 1 0      6.68649      27.7013      10.2027
    368 1 0      4.77604      27.7013      11.5589
    369 1 0      4.77604      29.6114       12.915
    370 1 0      6.68649      29.6114      14.2694
    371 1 0      6.68649      27.7013      15.6238
    372 1 0      4.77604      27.7013       16.978
    373 1 0      4.77604      29.6117      18.3322
    374 1 0      6.68649      29.6117      19.6864
    375 1 0      6.68649       27.701      21.0406
    376 1 0      4.77604      27.7009       22.395
    377 1 0      4.77602      29.6117      23.7482
    378 1 0      6.68649      29.6117      25.1016
    379 1 0      6.68649      27.7093      26.4594
    380 1 0      4.77604      27.7117      27.8151
    381 1 0      4.77604      29.6117       29.215
    382 1 0      6.68651      29.6117      30.6091
    383 1 0      6.68652      27.5207      31.8268
    384 1 0      4.77607      26.9958      33.1089
    385 1 0        8.597      3.57105      2.20113
    386 1 0      10.5075      3.04622      3.48321
    387 1 0      10.5074     0.955205      4.70092
    388 1 0      8.59699     0.955195      6.09507
    389 1 0      8.59698      2.85521      7.49496
    390 1 0      10.5074      2.85758      8.85069
    391 1 0      10.5074     0.955205      10.2085
    392 1 0      8.59697     0.955215      11.5619
    393 1 0      8.59697      2.86597      12.9151
    394 1 0      10.5074      2.86589      14.2695
    395 1 0      10.5074     0.955205      15.6236
    396 1 0      8.59699     0.955195      16.9779
    397 1 0      8.59699      2.86559      18.3321
    398 1 0      10.5074      2.86558      19.6862
    399 1 0      10.5074     0.955455      21.0406
    400 1 0      8.59697     0.955535       22.395
    401 1 0      8.59697      2.86559      23.7511
    402 1 0      10.5074      2.86559      25.1074
    403 1 0      10.5074     0.947175      26.4593
    404 1 0      8.59698     0.944795      27.8151
    405 1 0      8.59699      2.86553      29.1201
    406 1 0      10.5075      2.86553      30.4665
    407 1 0      10.5075      1.13611      31.8266
    408 1 0        8.597      1.66082      33.1087
    409 1 0        8.597      5.98088      2.20137
    410 1 0      10.5075      6.50568      3.48347
    411 1 0      10.5075      4.77606      4.84363
    412 1 0      8.59699      4.77604      6.18991
    413 1 0      8.59698      6.69691        7.495
    414 1 0      10.5074      6.69454      8.85074
    415 1 0      10.5074      4.77604      10.2027
    416 1 0      8.59697      4.77604      11.5589
    417 1 0      8.59697      6.68614      12.9151
    418 1 0      10.5074      6.68623      14.2695
    419 1 0      10.5074      4.77606      15.6238
    420 1 0      8.59699      4.77606       16.978
    421 1 0      8.59699      6.68651      18.3322
    422 1 0      10.5074      6.68651      19.6864
    423 1 0      10.5074      4.77576      21.0406
    424 1 0      8.59697      4.77567       22.395
    425 1 0      8.59697      6.68649      23.7481
    426 1 0      10.5074      6.68649      25.1015
    427 1 0      10.5074      4.78406      26.4593
    428 1 0      8.59698      4.78643       27.815
    429 1 0      8.59699      6.68651      29.2149
    430 1 0      10.5074      6.68658      30.6091
    431 1 0      10.5075      4.59537      31.8267
    432 1 0        8.597      4.07066      33.1088
    433 1 0      8.59702      11.2129      2.20117
    434 1 0      10.5075      10.6879      3.48317
    435 1 0      10.5074      8.59695      4.70097
    436 1 0      8.59699      8.59697      6.09516
    437 1 0      8.59698       10.497        7.495
    438 1 0      10.5074      10.4994      8.85075
    439 1 0      10.5074      8.59699      10.2086
    440 1 0      8.59697      8.59699       11.562
    441 1 0      8.59697      10.5078      12.9151
    442 1 0      10.5074      10.5077      14.2695
    443 1 0      10.5074      8.59697      15.6237
    444 1 0      8.59699      8.59697      16.9779
    445 1 0      8.59699      10.5074      18.3321
    446 1 0      10.5074      10.5074      19.6862
    447 1 0      10.5074      8.59723      21.0406
    448 1 0      8.59697      8.59732       22.395
    449 1 0      8.59697      10.5074      23.7511
    450 1 0      10.5074      10.5074      25.1073
    451 1 0      10.5074      8.58892      26.4593
    452 1 0      8.59698      8.58656       27.815
    453 1 0      8.59699      10.5074      29.1201
    454 1 0      10.5075      10.5074      30.4665
    455 1 0      10.5075      8.77786      31.8266
    456 1 0        8.597      9.30265      33.1087
    457 1 0      8.59702      13.6227      2.20133
    458 1 0      10.5075      14.1476      3.48335
    459 1 0      10.5075      12.4179       4.8438
    460 1 0      8.59699      12.4179      6.18994
    461 1 0      8.59698      14.3387      7.49503
    462 1 0      10.5074      14.3363      8.85075
    463 1 0      10.5074      12.4179      10.2028
    464 1 0      8.59697      12.4179       11.559
    465 1 0      8.59697      14.3279      12.9151
    466 1 0      10.5074       14.328      14.2695
    467 1 0      10.5074      12.4179      15.6239
    468 1 0      8.59699      12.4179       16.978
    469 1 0      8.59699      14.3283      18.3322
    470 1 0      10.5074      14.3283      19.6864
    471 1 0      10.5074      12.4176      21.0406
    472 1 0      8.59697      12.4175       22.395
    473 1 0      8.59697      14.3282      23.7481
    474 1 0      10.5074      14.3282      25.1015
    475 1 0      10.5074      12.4259      26.4593
    476 1 0      8.59698      12.4282       27.815
    477 1 0      8.59699      14.3282      29.2149
    478 1 0      10.5074      14.3283       30.609
    479 1 0      10.5075      12.2372      31.8267
    480 1 0        8.597      11.7125      33.1089
    481 1 0        8.597      18.8544      2.20115
    482 1 0      10.5075      18.3297      3.48331
    483 1 0      10.5074      16.2385      4.70101
    484 1 0      8.59699      16.2386      6.09516
    485 1 0      8.59698      18.1386      7.49502
    486 1 0      10.5074       18.141      8.85074
    487 1 0      10.5074      16.2386      10.2086
    488 1 0      8.59697      16.2387       11.562
    489 1 0      8.59697      18.1494      12.9151
    490 1 0      10.5074      18.1493      14.2695
    491 1 0      10.5074      16.2386      15.6237
    492 1 0      8.59699      16.2386      16.9779
    493 1 0      8.59699       18.149      18.3321
    494 1 0      10.5074       18.149      19.6862
    495 1 0      10.5074      16.2389      21.0406
    496 1 0      8.59697       16.239       22.395
    497 1 0      8.59697       18.149      23.7511
    498 1 0      10.5074       18.149      25.1073
    499 1 0      10.5074      16.2306      26.4593
    500 1 0      8.59698      16.2282       27.815
    501 1 0      8.59699       18.149      29.1201
    502 1 0      10.5075       18.149      30.4662
    503 1 0      10.5075      16.4193      31.8267
    504 1 0      8.59702      16.9442      33.1087
    505 1 0        8.597      21.2642      2.20128
    506 1 0      10.5075       21.789      3.48346
    507 1 0      10.5075      20.0594      4.84352
    508 1 0      8.59699      20.0595      6.18989
    509 1 0      8.59698      21.9803        7.495
    510 1 0      10.5074       21.978      8.85074
    511 1 0      10.5074      20.0595      10.2027
    512 1 0      8.59697      20.0595       11.559
    513 1 0      8.59697      21.9696      12.9151
    514 1 0      10.5074      21.9697      14.2695
    515 1 0      10.5074      20.0595      15.6238
    516 1 0      8.59699      20.0595       16.978
    517 1 0      8.59699      21.9699      18.3322
    518 1 0      10.5074      21.9699      19.6864
    519 1 0      10.5074      20.0592      21.0406
    520 1 0      8.59697      20.0591       22.395
    521 1 0      8.59697      21.9699      23.7481
    522 1 0      10.5074      21.9699      25.1015
    523 1 0      10.5074      20.0675      26.4593
    524 1 0      8.59698      20.0699       27.815
    525 1 0      8.59699      21.9699      29.2149
    526 1 0      10.5074      21.9699      30.6091
    527 1 0      10.5075       19.879      31.8269
    528 1 0      8.59702       19.354      33.1089
    529 1 0        8.597      26.4962      2.20119
    530 1 0      10.5075      25.9715      3.48333
    531 1 0      10.5074      23.8803      4.70096
    532 1 0      8.59699      23.8804      6.09513
    533 1 0      8.59698      25.7805      7.49498
    534 1 0      10.5074      25.7828      8.85073
    535 1 0      10.5074      23.8804      10.2086
    536 1 0      8.59697      23.8804       11.562
    537 1 0      8.59697      25.7912      12.9151
    538 1 0      10.5074      25.7911      14.2695
    539 1 0      10.5074      23.8804      15.6236
    540 1 0      8.59699      23.8804      16.9779
    541 1 0      8.59699      25.7908      18.3321
    542 1 0      10.5074      25.7908      19.6862
    543 1 0      10.5074      23.8807      21.0406
    544 1 0      8.59697      23.8807       22.395
    545 1 0      8.59697      25.7909      23.7511
    546 1 0      10.5074      25.7909      25.1074
    547 1 0      10.5074      23.8724      26.4593
    548 1 0      8.59698        23.87       27.815
    549 1 0      8.59699      25.7909      29.1201
    550 1 0      10.5075      25.7908      30.4664
    551 1 0      10.5075      24.0612      31.8265
    552 1 0        8.597       24.586      33.1087
    553 1 0        8.597      28.9061      2.20128
    554 1 0      10.5075      29.4308      3.48344
    555 1 0      10.5075      27.7013      4.84354
    556 1 0      8.59699      27.7013      6.18989
    557 1 0      8.59698      29.6221      7.49496
    558 1 0      10.5074      29.6197      8.85069
    559 1 0      10.5074      27.7013      10.2027
    560 1 0      8.59697      27.7013      11.5589
    561 1 0      8.59697      29.6114       12.915
    562 1 0      10.5074      29.6114      14.2694
    563 1 0      10.5074      27.7013      15.6238
    564 1 0      8.59699      27.7013       16.978
    565 1 0      8.59699      29.6117      18.3322
    566 1 0      10.5074      29.6117      19.6864
    567 1 0      10.5074       27.701      21.0406
    568 1 0      8.59697      27.7009       22.395
    569 1 0      8.59697      29.6117      23.7481
    570 1 0      10.5074      29.6117      25.1015
    571 1 0      10.5074      27.7093      26.4593
    572 1 0      8.59698      27.7117      27.8151
    573 1 0      8.59699      29.6117       29.215
    574 1 0      10.5074      29.6117      30.6091
    575 1 0      10.5075      27.5206      31.8268
    576 1 0        8.597      26.9958      33.1089
    577 1 0      12.4179      3.57105      2.20111
    578 1 0      14.3283      3.04621      3.48324
    579 1 0      14.3283     0.955205      4.70094
    580 1 0      12.4179     0.955205      6.09513
    581 1 0      12.4178      2.85521        7.495
    582 1 0      14.3282      2.85758      8.85073
    583 1 0      14.3282     0.955205      10.2086
    584 1 0      12.4178     0.955215       11.562
    585 1 0      12.4179      2.86597      12.9151