# LAMMPS data file written by Ovito Basic 3.0.0-dev791
1318 atoms
2 atom types
0.0 26.0 xlo xhi
0.0 26.0 ylo yhi
0.0 26.0 zlo zhi

Atoms  # charge

1 1 0.0 9.37874 13.0 13.0
2 1 0.0 13.0 9.37874 13.0
3 1 0.0 13.0 13.0 9.37874
4 1 0.0 13.0 13.0 13.0
5 1 0.0 13.0 13.0 16.62126
6 1 0.0 13.0 16.62126 13.0
7 1 0.0 16.62126 13.0 13.0
8 1 0.0 9.37874 11.18937 11.18937
9 1 0.0 9.37874 11.18937 14.81063
10 1 0.0 9.37874 14.81063 11.18937
11 1 0.0 9.37874 14.81063 14.81063
12 1 0.0 13.0 11.18937 11.18937
13 1 0.0 13.0 11.18937 14.81063
14 1 0.0 13.0 14.81063 11.18937
15 1 0.0 13.0 14.81063 14.81063
16 1 0.0 16.62126 11.18937 11.18937
17 1 0.0 16.62126 11.18937 14.81063
18 1 0.0 16.62126 14.81063 11.18937
19 1 0.0 16.62126 14.81063 14.81063
20 1 0.0 11.18937 9.37874 11.18937
21 1 0.0 11.18937 9.37874 14.81063
22 1 0.0 11.18937 13.0 11.18937
23 1 0.0 11.18937 13.0 14.81063
24 1 0.0 11.18937 16.62126 11.18937
25 1 0.0 11.18937 16.62126 14.81063
26 1 0.0 14.81063 9.37874 11.18937
27 1 0.0 14.81063 9.37874 14.81063
28 1 0.0 14.81063 13.0 11.18937
29 1 0.0 14.81063 13.0 14.81063
30 1 0.0 14.81063 16.62126 11.18937
31 1 0.0 14.81063 16.62126 14.81063
32 1 0.0 11.18937 11.18937 9.37874
33 1 0.0 11.18937 11.18937 13.0
34 1 0.0 11.18937 11.18937 16.62126
35 1 0.0 11.18937 14.81063 9.37874
36 1 0.0 11.18937 14.81063 13.0
37 1 0.0 11.18937 14.81063 16.62126
38 1 0.0 14.81063 11.18937 9.37874
39 1 0.0 14.81063 11.18937 13.0
40 1 0.0 14.81063 11.18937 16.62126
41 1 0.0 14.81063 14.81063 9.37874
42 1 0.0 14.81063 14.81063 13.0
43 1 0.0 14.81063 14.81063 16.62126
44 2 0.0 0.0 0.0 0.0
45 2 0.0 0.0 0.0 2.36364
46 2 0.0 0.0 0.0 4.72728
47 2 0.0 0.0 0.0 7.09092
48 2 0.0 0.0 0.0 9.45456
49 2 0.0 0.0 0.0 11.8182
50 2 0.0 0.0 0.0 14.1818
51 2 0.0 0.0 0.0 16.5455
52 2 0.0 0.0 0.0 18.9091
53 2 0.0 0.0 0.0 21.2728
54 2 0.0 0.0 0.0 23.6364
55 2 0.0 0.0 2.36364 0.0
56 2 0.0 0.0 2.36364 2.36364
57 2 0.0 0.0 2.36364 4.72728
58 2 0.0 0.0 2.36364 7.09092
59 2 0.0 0.0 2.36364 9.45456
60 2 0.0 0.0 2.36364 11.8182
61 2 0.0 0.0 2.36364 14.1818
62 2 0.0 0.0 2.36364 16.5455
63 2 0.0 0.0 2.36364 18.9091
64 2 0.0 0.0 2.36364 21.2728
65 2 0.0 0.0 2.36364 23.6364
66 2 0.0 0.0 4.72728 0.0
67 2 0.0 0.0 4.72728 2.36364
68 2 0.0 0.0 4.72728 4.72728
69 2 0.0 0.0 4.72728 7.09092
70 2 0.0 0.0 4.72728 9.45456
71 2 0.0 0.0 4.72728 11.8182
72 2 0.0 0.0 4.72728 14.1818
73 2 0.0 0.0 4.72728 16.5455
74 2 0.0 0.0 4.72728 18.9091
75 2 0.0 0.0 4.72728 21.2728
76 2 0.0 0.0 4.72728 23.6364
77 2 0.0 0.0 7.09092 0.0
78 2 0.0 0.0 7.09092 2.36364
79 2 0.0 0.0 7.09092 4.72728
80 2 0.0 0.0 7.09092 7.09092
81 2 0.0 0.0 7.09092 9.45456
82 2 0.0 0.0 7.09092 11.8182
83 2 0.0 0.0 7.09092 14.1818
84 2 0.0 0.0 7.09092 16.5455
85 2 0.0 0.0 7.09092 18.9091
86 2 0.0 0.0 7.09092 21.2728
87 2 0.0 0.0 7.09092 23.6364
88 2 0.0 0.0 9.45456 0.0
89 2 0.0 0.0 9.45456 2.36364
90 2 0.0 0.0 9.45456 4.72728
91 2 0.0 0.0 9.45456 7.09092
92 2 0.0 0.0 9.45456 9.45456
93 2 0.0 0.0 9.45456 11.8182
94 2 0.0 0.0 9.45456 14.1818
95 2 0.0 0.0 9.45456 16.5455
96 2 0.0 0.0 9.45456 18.9091
97 2 0.0 0.0 9.45456 21.2728
98 2 0.0 0.0 9.45456 23.6364
99 2 0.0 0.0 11.8182 0.0
100 2 0.0 0.0 11.8182 2.36364
101 2 0.0 0.0 11.8182 4.72728
102 2 0.0 0.0 11.8182 7.09092
103 2 0.0 0.0 11.8182 9.45456
104 2 0.0 0.0 11.8182 11.8182
105 2 0.0 0.0 11.8182 14.1818
106 2 0.0 0.0 11.8182 16.5455
107 2 0.0 0.0 11.8182 18.9091
108 2 0.0 0.0 11.8182 21.2728
109 2 0.0 0.0 11.8182 23.6364
110 2 0.0 0.0 14.1818 0.0
111 2 0.0 0.0 14.1818 2.36364
112 2 0.0 0.0 14.1818 4.72728
113 2 0.0 0.0 14.1818 7.09092
114 2 0.0 0.0 14.1818 9.45456
115 2 0.0 0.0 14.1818 11.8182
116 2 0.0 0.0 14.1818 14.1818
117 2 0.0 0.0 14.1818 16.5455
118 2 0.0 0.0 14.1818 18.9091
119 2 0.0 0.0 14.1818 21.2728
120 2 0.0 0.0 14.1818 23.6364
121 2 0.0 0.0 16.5455 0.0
122 2 0.0 0.0 16.5455 2.36364
123 2 0.0 0.0 16.5455 4.72728
124 2 0.0 0.0 16.5455 7.09092
125 2 0.0 0.0 16.5455 9.45456
126 2 0.0 0.0 16.5455 11.8182
127 2 0.0 0.0 16.5455 14.1818
128 2 0.0 0.0 16.5455 16.5455
129 2 0.0 0.0 16.5455 18.9091
130 2 0.0 0.0 16.5455 21.2728
131 2 0.0 0.0 16.5455 23.6364
132 2 0.0 0.0 18.9091 0.0
133 2 0.0 0.0 18.9091 2.36364
134 2 0.0 0.0 18.9091 4.72728
135 2 0.0 0.0 18.9091 7.09092
136 2 0.0 0.0 18.9091 9.45456
137 2 0.0 0.0 18.9091 11.8182
138 2 0.0 0.0 18.9091 14.1818
139 2 0.0 0.0 18.9091 16.5455
140 2 0.0 0.0 18.9091 18.9091
141 2 0.0 0.0 18.9091 21.2728
142 2 0.0 0.0 18.9091 23.6364
143 2 0.0 0.0 21.2728 0.0
144 2 0.0 0.0 21.2728 2.36364
145 2 0.0 0.0 21.2728 4.72728
146 2 0.0 0.0 21.2728 7.09092
147 2 0.0 0.0 21.2728 9.45456
148 2 0.0 0.0 21.2728 11.8182
149 2 0.0 0.0 21.2728 14.1818
150 2 0.0 0.0 21.2728 16.5455
151 2 0.0 0.0 21.2728 18.9091
152 2 0.0 0.0 21.2728 21.2728
153 2 0.0 0.0 21.2728 23.6364
154 2 0.0 0.0 23.6364 0.0
155 2 0.0 0.0 23.6364 2.36364
156 2 0.0 0.0 23.6364 4.72728
157 2 0.0 0.0 23.6364 7.09092
158 2 0.0 0.0 23.6364 9.45456
159 2 0.0 0.0 23.6364 11.8182
160 2 0.0 0.0 23.6364 14.1818
161 2 0.0 0.0 23.6364 16.5455
162 2 0.0 0.0 23.6364 18.9091
163 2 0.0 0.0 23.6364 21.2728
164 2 0.0 0.0 23.6364 23.6364
165 2 0.0 2.36364 0.0 0.0
166 2 0.0 2.36364 0.0 2.36364
167 2 0.0 2.36364 0.0 4.72728
168 2 0.0 2.36364 0.0 7.09092
169 2 0.0 2.36364 0.0 9.45456
170 2 0.0 2.36364 0.0 11.8182
171 2 0.0 2.36364 0.0 14.1818
172 2 0.0 2.36364 0.0 16.5455
173 2 0.0 2.36364 0.0 18.9091
174 2 0.0 2.36364 0.0 21.2728
175 2 0.0 2.36364 0.0 23.6364
176 2 0.0 2.36364 2.36364 0.0
177 2 0.0 2.36364 2.36364 2.36364
178 2 0.0 2.36364 2.36364 4.72728
179 2 0.0 2.36364 2.36364 7.09092
180 2 0.0 2.36364 2.36364 9.45456
181 2 0.0 2.36364 2.36364 11.8182
182 2 0.0 2.36364 2.36364 14.1818
183 2 0.0 2.36364 2.36364 16.5455
184 2 0.0 2.36364 2.36364 18.9091
185 2 0.0 2.36364 2.36364 21.2728
186 2 0.0 2.36364 2.36364 23.6364
187 2 0.0 2.36364 4.72728 0.0
188 2 0.0 2.36364 4.72728 2.36364
189 2 0.0 2.36364 4.72728 4.72728
190 2 0.0 2.36364 4.72728 7.09092
191 2 0.0 2.36364 4.72728 9.45456
192 2 0.0 2.36364 4.72728 11.8182
193 2 0.0 2.36364 4.72728 14.1818
194 2 0.0 2.36364 4.72728 16.5455
195 2 0.0 2.36364 4.72728 18.9091
196 2 0.0 2.36364 4.72728 21.2728
197 2 0.0 2.36364 4.72728 23.6364
198 2 0.0 2.36364 7.09092 0.0
199 2 0.0 2.36364 7.09092 2.36364
200 2 0.0 2.36364 7.09092 4.72728
201 2 0.0 2.36364 7.09092 7.09092
202 2 0.0 2.36364 7.09092 9.45456
203 2 0.0 2.36364 7.09092 11.8182
204 2 0.0 2.36364 7.09092 14.1818
205 2 0.0 2.36364 7.09092 16.5455
206 2 0.0 2.36364 7.09092 18.9091
207 2 0.0 2.36364 7.09092 21.2728
208 2 0.0 2.36364 7.09092 23.6364
209 2 0.0 2.36364 9.45456 0.0
210 2 0.0 2.36364 9.45456 2.36364
211 2 0.0 2.36364 9.45456 4.72728
212 2 0.0 2.36364 9.45456 7.09092
213 2 0.0 2.36364 9.45456 9.45456
214 2 0.0 2.36364 9.45456 11.8182
215 2 0.0 2.36364 9.45456 14.1818
216 2 0.0 2.36364 9.45456 16.5455
217 2 0.0 2.36364 9.45456 18.9091
218 2 0.0 2.36364 9.45456 21.2728
219 2 0.0 2.36364 9.45456 23.6364
220 2 0.0 2.36364 11.8182 0.0
221 2 0.0 2.36364 11.8182 2.36364
222 2 0.0 2.36364 11.8182 4.72728
223 2 0.0 2.36364 11.8182 7.09092
224 2 0.0 2.36364 11.8182 9.45456
225 2 0.0 2.36364 11.8182 11.8182
226 2 0.0 2.36364 11.8182 14.1818
227 2 0.0 2.36364 11.8182 16.5455
228 2 0.0 2.36364 11.8182 18.9091
229 2 0.0 2.36364 11.8182 21.2728
230 2 0.0 2.36364 11.8182 23.6364
231 2 0.0 2.36364 14.1818 0.0
232 2 0.0 2.36364 14.1818 2.36364
233 2 0.0 2.36364 14.1818 4.72728
234 2 0.0 2.36364 14.1818 7.09092
235 2 0.0 2.36364 14.1818 9.45456
236 2 0.0 2.36364 14.1818 11.8182
237 2 0.0 2.36364 14.1818 14.1818
238 2 0.0 2.36364 14.1818 16.5455
239 2 0.0 2.36364 14.1818 18.9091
240 2 0.0 2.36364 14.1818 21.2728
241 2 0.0 2.36364 14.1818 23.6364
242 2 0.0 2.36364 16.5455 0.0
243 2 0.0 2.36364 16.5455 2.36364
244 2 0.0 2.36364 16.5455 4.72728
245 2 0.0 2.36364 16.5455 7.09092
246 2 0.0 2.36364 16.5455 9.45456
247 2 0.0 2.36364 16.5455 11.8182
248 2 0.0 2.36364 16.5455 14.1818
249 2 0.0 2.36364 16.5455 16.5455
250 2 0.0 2.36364 16.5455 18.9091
251 2 0.0 2.36364 16.5455 21.2728
252 2 0.0 2.36364 16.5455 23.6364
253 2 0.0 2.36364 18.9091 0.0
254 2 0.0 2.36364 18.9091 2.36364
255 2 0.0 2.36364 18.9091 4.72728
256 2 0.0 2.36364 18.9091 7.09092
257 2 0.0 2.36364 18.9091 9.45456
258 2 0.0 2.36364 18.9091 11.8182
259 2 0.0 2.36364 18.9091 14.1818
260 2 0.0 2.36364 18.9091 16.5455
261 2 0.0 2.36364 18.9091 18.9091
262 2 0.0 2.36364 18.9091 21.2728
263 2 0.0 2.36364 18.9091 23.6364
264 2 0.0 2.36364 21.2728 0.0
265 2 0.0 2.36364 21.2728 2.36364
266 2 0.0 2.36364 21.2728 4.72728
267 2 0.0 2.36364 21.2728 7.09092
268 2 0.0 2.36364 21.2728 9.45456
269 2 0.0 2.36364 21.2728 11.8182
270 2 0.0 2.36364 21.2728 14.1818
271 2 0.0 2.36364 21.2728 16.5455
272 2 0.0 2.36364 21.2728 18.9091
273 2 0.0 2.36364 21.2728 21.2728
274 2 0.0 2.36364 21.2728 23.6364
275 2 0.0 2.36364 23.6364 0.0
276 2 0.0 2.36364 23.6364 2.36364
277 2 0.0 2.36364 23.6364 4.72728
278 2 0.0 2.36364 23.6364 7.09092
279 2 0.0 2.36364 23.6364 9.45456
280 2 0.0 2.36364 23.6364 11.8182
281 2 0.0 2.36364 23.6364 14.1818
282 2 0.0 2.36364 23.6364 16.5455
283 2 0.0 2.36364 23.6364 18.9091
284 2 0.0 2.36364 23.6364 21.2728
285 2 0.0 2.36364 23.6364 23.6364
286 2 0.0 4.72728 0.0 0.0
287 2 0.0 4.72728 0.0 2.36364
288 2 0.0 4.72728 0.0 4.72728
289 2 0.0 4.72728 0.0 7.09092
290 2 0.0 4.72728 0.0 9.45456
291 2 0.0 4.72728 0.0 11.8182
292 2 0.0 4.72728 0.0 14.1818
293 2 0.0 4.72728 0.0 16.5455
294 2 0.0 4.72728 0.0 18.9091
295 2 0.0 4.72728 0.0 21.2728
296 2 0.0 4.72728 0.0 23.6364
297 2 0.0 4.72728 2.36364 0.0
298 2 0.0 4.72728 2.36364 2.36364
299 2 0.0 4.72728 2.36364 4.72728
300 2 0.0 4.72728 2.36364 7.09092
301 2 0.0 4.72728 2.36364 9.45456
302 2 0.0 4.72728 2.36364 11.8182
303 2 0.0 4.72728 2.36364 14.1818
304 2 0.0 4.72728 2.36364 16.5455
305 2 0.0 4.72728 2.36364 18.9091
306 2 0.0 4.72728 2.36364 21.2728
307 2 0.0 4.72728 2.36364 23.6364
308 2 0.0 4.72728 4.72728 0.0
309 2 0.0 4.72728 4.72728 2.36364
310 2 0.0 4.72728 4.72728 4.72728
311 2 0.0 4.72728 4.72728 7.09092
312 2 0.0 4.72728 4.72728 9.45456
313 2 0.0 4.72728 4.72728 11.8182
314 2 0.0 4.72728 4.72728 14.1818
315 2 0.0 4.72728 4.72728 16.5455
316 2 0.0 4.72728 4.72728 18.9091
317 2 0.0 4.72728 4.72728 21.2728
318 2 0.0 4.72728 4.72728 23.6364
319 2 0.0 4.72728 7.09092 0.0
320 2 0.0 4.72728 7.09092 2.36364
321 2 0.0 4.72728 7.09092 4.72728
322 2 0.0 4.72728 7.09092 7.09092
323 2 0.0 4.72728 7.09092 9.45456
324 2 0.0 4.72728 7.09092 11.8182
325 2 0.0 4.72728 7.09092 14.1818
326 2 0.0 4.72728 7.09092 16.5455
327 2 0.0 4.72728 7.09092 18.9091
328 2 0.0 4.72728 7.09092 21.2728
329 2 0.0 4.72728 7.09092 23.6364
330 2 0.0 4.72728 9.45456 0.0
331 2 0.0 4.72728 9.45456 2.36364
332 2 0.0 4.72728 9.45456 4.72728
333 2 0.0 4.72728 9.45456 7.09092
334 2 0.0 4.72728 9.45456 9.45456
335 2 0.0 4.72728 9.45456 11.8182
336 2 0.0 4.72728 9.45456 14.1818
337 2 0.0 4.72728 9.45456 16.5455
338 2 0.0 4.72728 9.45456 18.9091
339 2 0.0 4.72728 9.45456 21.2728
340 2 0.0 4.72728 9.45456 23.6364
341 2 0.0 4.72728 11.8182 0.0
342 2 0.0 4.72728 11.8182 2.36364
343 2 0.0 4.72728 11.8182 4.72728
344 2 0.0 4.72728 11.8182 7.09092
345 2 0.0 4.72728 11.8182 9.45456
346 2 0.0 4.72728 11.8182 11.8182
347 2 0.0 4.72728 11.8182 14.1818
348 2 0.0 4.72728 11.8182 16.5455
349 2 0.0 4.72728 11.8182 18.9091
350 2 0.0 4.72728 11.8182 21.2728
351 2 0.0 4.72728 11.8182 23.6364
352 2 0.0 4.72728 14.1818 0.0
353 2 0.0 4.72728 14.1818 2.36364
354 2 0.0 4.72728 14.1818 4.72728
355 2 0.0 4.72728 14.1818 7.09092
356 2 0.0 4.72728 14.1818 9.45456
357 2 0.0 4.72728 14.1818 11.8182
358 2 0.0 4.72728 14.1818 14.1818
359 2 0.0 4.72728 14.1818 16.5455
360 2 0.0 4.72728 14.1818 18.9091
361 2 0.0 4.72728 14.1818 21.2728
362 2 0.0 4.72728 14.1818 23.6364
363 2 0.0 4.72728 16.5455 0.0
364 2 0.0 4.72728 16.5455 2.36364
365 2 0.0 4.72728 16.5455 4.72728
366 2 0.0 4.72728 16.5455 7.09092
367 2 0.0 4.72728 16.5455 9.45456
368 2 0.0 4.72728 16.5455 11.8182
369 2 0.0 4.72728 16.5455 14.1818
370 2 0.0 4.72728 16.5455 16.5455
371 2 0.0 4.72728 16.5455 18.9091
372 2 0.0 4.72728 16.5455 21.2728
373 2 0.0 4.72728 16.5455 23.6364
374 2 0.0 4.72728 18.9091 0.0
375 2 0.0 4.72728 18.9091 2.36364
376 2 0.0 4.72728 18.9091 4.72728
377 2 0.0 4.72728 18.9091 7.09092
378 2 0.0 4.72728 18.9091 9.45456
379 2 0.0 4.72728 18.9091 11.8182
380 2 0.0 4.72728 18.9091 14.1818
381 2 0.0 4.72728 18.9091 16.5455
382 2 0.0 4.72728 18.9091 18.9091
383 2 0.0 4.72728 18.9091 21.2728
384 2 0.0 4.72728 18.9091 23.6364
385 2 0.0 4.72728 21.2728 0.0
386 2 0.0 4.72728 21.2728 2.36364
387 2 0.0 4.72728 21.2728 4.72728
388 2 0.0 4.72728 21.2728 7.09092
389 2 0.0 4.72728 21.2728 9.45456
390 2 0.0 4.72728 21.2728 11.8182
391 2 0.0 4.72728 21.2728 14.1818
392 2 0.0 4.72728 21.2728 16.5455
393 2 0.0 4.72728 21.2728 18.9091
394 2 0.0 4.72728 21.2728 21.2728
395 2 0.0 4.72728 21.2728 23.6364
396 2 0.0 4.72728 23.6364 0.0
397 2 0.0 4.72728 23.6364 2.36364
398 2 0.0 4.72728 23.6364 4.72728
399 2 0.0 4.72728 23.6364 7.09092
400 2 0.0 4.72728 23.6364 9.45456
401 2 0.0 4.72728 23.6364 11.8182
402 2 0.0 4.72728 23.6364 14.1818
403 2 0.0 4.72728 23.6364 16.5455
404 2 0.0 4.72728 23.6364 18.9091
405 2 0.0 4.72728 23.6364 21.2728
406 2 0.0 4.72728 23.6364 23.6364
407 2 0.0 7.09092 0.0 0.0
408 2 0.0 7.09092 0.0 2.36364
409 2 0.0 7.09092 0.0 4.72728
410 2 0.0 7.09092 0.0 7.09092
411 2 0.0 7.09092 0.0 9.45456
412 2 0.0 7.09092 0.0 11.8182
413 2 0.0 7.09092 0.0 14.1818
414 2 0.0 7.09092 0.0 16.5455
415 2 0.0 7.09092 0.0 18.9091
416 2 0.0 7.09092 0.0 21.2728
417 2 0.0 7.09092 0.0 23.6364
418 2 0.0 7.09092 2.36364 0.0
419 2 0.0 7.09092 2.36364 2.36364
420 2 0.0 7.09092 2.36364 4.72728
421 2 0.0 7.09092 2.36364 7.09092
422 2 0.0 7.09092 2.36364 9.45456
423 2 0.0 7.09092 2.36364 11.8182
424 2 0.0 7.09092 2.36364 14.1818
425 2 0.0 7.09092 2.36364 16.5455
426 2 0.0 7.09092 2.36364 18.9091
427 2 0.0 7.09092 2.36364 21.2728
428 2 0.0 7.09092 2.36364 23.6364
429 2 0.0 7.09092 4.72728 0.0
430 2 0.0 7.09092 4.72728 2.36364
431 2 0.0 7.09092 4.72728 4.72728
432 2 0.0 7.09092 4.72728 7.09092
433 2 0.0 7.09092 4.72728 9.45456
434 2 0.0 7.09092 4.72728 11.8182
435 2 0.0 7.09092 4.72728 14.1818
436 2 0.0 7.09092 4.72728 16.5455
437 2 0.0 7.09092 4.72728 18.9091
438 2 0.0 7.09092 4.72728 21.2728
439 2 0.0 7.09092 4.72728 23.6364
440 2 0.0 7.09092 7.09092 0.0
441 2 0.0 7.09092 7.09092 2.36364
442 2 0.0 7.09092 7.09092 4.72728
443 2 0.0 7.09092 7.09092 7.09092
444 2 0.0 7.09092 7.09092 9.45456
445 2 0.0 7.09092 7.09092 11.8182
446 2 0.0 7.09092 7.09092 14.1818
447 2 0.0 7.09092 7.09092 16.5455
448 2 0.0 7.09092 7.09092 18.9091
449 2 0.0 7.09092 7.09092 21.2728
450 2 0.0 7.09092 7.09092 23.6364
451 2 0.0 7.09092 9.45456 0.0
452 2 0.0 7.09092 9.45456 2.36364
453 2 0.0 7.09092 9.45456 4.72728
454 2 0.0 7.09092 9.45456 7.09092
455 2 0.0 7.09092 9.45456 9.45456
456 2 0.0 7.09092 9.45456 11.8182
457 2 0.0 7.09092 9.45456 14.1818
458 2 0.0 7.09092 9.45456 16.5455
459 2 0.0 7.09092 9.45456 18.9091
460 2 0.0 7.09092 9.45456 21.2728
461 2 0.0 7.09092 9.45456 23.6364
462 2 0.0 7.09092 11.8182 0.0
463 2 0.0 7.09092 11.8182 2.36364
464 2 0.0 7.09092 11.8182 4.72728
465 2 0.0 7.09092 11.8182 7.09092
466 2 0.0 7.09092 11.8182 9.45456
467 2 0.0 7.09092 11.8182 11.8182
468 2 0.0 7.09092 11.8182 14.1818
469 2 0.0 7.09092 11.8182 16.5455
470 2 0.0 7.09092 11.8182 18.9091
471 2 0.0 7.09092 11.8182 21.2728
472 2 0.0 7.09092 11.8182 23.6364
473 2 0.0 7.09092 14.1818 0.0
474 2 0.0 7.09092 14.1818 2.36364
475 2 0.0 7.09092 14.1818 4.72728
476 2 0.0 7.09092 14.1818 7.09092
477 2 0.0 7.09092 14.1818 9.45456
478 2 0.0 7.09092 14.1818 11.8182
479 2 0.0 7.09092 14.1818 14.1818
480 2 0.0 7.09092 14.1818 16.5455
481 2 0.0 7.09092 14.1818 18.9091
482 2 0.0 7.09092 14.1818 21.2728
483 2 0.0 7.09092 14.1818 23.6364
484 2 0.0 7.09092 16.5455 0.0
485 2 0.0 7.09092 16.5455 2.36364
486 2 0.0 7.09092 16.5455 4.72728
487 2 0.0 7.09092 16.5455 7.09092
488 2 0.0 7.09092 16.5455 9.45456
489 2 0.0 7.09092 16.5455 11.8182
490 2 0.0 7.09092 16.5455 14.1818
491 2 0.0 7.09092 16.5455 16.5455
492 2 0.0 7.09092 16.5455 18.9091
493 2 0.0 7.09092 16.5455 21.2728
494 2 0.0 7.09092 16.5455 23.6364
495 2 0.0 7.09092 18.9091 0.0
496 2 0.0 7.09092 18.9091 2.36364
497 2 0.0 7.09092 18.9091 4.72728
498 2 0.0 7.09092 18.9091 7.09092
499 2 0.0 7.09092 18.9091 9.45456
500 2 0.0 7.09092 18.9091 11.8182
501 2 0.0 7.09092 18.9091 14.1818
502 2 0.0 7.09092 18.9091 16.5455
503 2 0.0 7.09092 18.9091 18.9091
504 2 0.0 7.09092 18.9091 21.2728
505 2 0.0 7.09092 18.9091 23.6364
506 2 0.0 7.09092 21.2728 0.0
507 2 0.0 7.09092 21.2728 2.36364
508 2 0.0 7.09092 21.2728 4.72728
509 2 0.0 7.09092 21.2728 7.09092
510 2 0.0 7.09092 21.2728 9.45456
511 2 0.0 7.09092 21.2728 11.8182
512 2 0.0 7.09092 21.2728 14.1818
513 2 0.0 7.09092 21.2728 16.5455
514 2 0.0 7.09092 21.2728 18.9091
515 2 0.0 7.09092 21.2728 21.2728
516 2 0.0 7.09092 21.2728 23.6364
517 2 0.0 7.09092 23.6364 0.0
518 2 0.0 7.09092 23.6364 2.36364
519 2 0.0 7.09092 23.6364 4.72728
520 2 0.0 7.09092 23.6364 7.09092
521 2 0.0 7.09092 23.6364 9.45456
522 2 0.0 7.09092 23.6364 11.8182
523 2 0.0 7.09092 23.6364 14.1818
524 2 0.0 7.09092 23.6364 16.5455
525 2 0.0 7.09092 23.6364 18.9091
526 2 0.0 7.09092 23.6364 21.2728
527 2 0.0 7.09092 23.6364 23.6364
528 2 0.0 9.45456 0.0 0.0
529 2 0.0 9.45456 0.0 2.36364
530 2 0.0 9.45456 0.0 4.72728
531 2 0.0 9.45456 0.0 7.09092
532 2 0.0 9.45456 0.0 9.45456
533 2 0.0 9.45456 0.0 11.8182
534 2 0.0 9.45456 0.0 14.1818
535 2 0.0 9.45456 0.0 16.5455
536 2 0.0 9.45456 0.0 18.9091
537 2 0.0 9.45456 0.0 21.2728
538 2 0.0 9.45456 0.0 23.6364
539 2 0.0 9.45456 2.36364 0.0
540 2 0.0 9.45456 2.36364 2.36364
541 2 0.0 9.45456 2.36364 4.72728
542 2 0.0 9.45456 2.36364 7.09092
543 2 0.0 9.45456 2.36364 9.45456
544 2 0.0 9.45456 2.36364 11.8182
545 2 0.0 9.45456 2.36364 14.1818
546 2 0.0 9.45456 2.36364 16.5455
547 2 0.0 9.45456 2.36364 18.9091
548 2 0.0 9.45456 2.36364 21.2728
549 2 0.0 9.45456 2.36364 23.6364
550 2 0.0 9.45456 4.72728 0.0
551 2 0.0 9.45456 4.72728 2.36364
552 2 0.0 9.45456 4.72728 4.72728
553 2 0.0 9.45456 4.72728 7.09092
554 2 0.0 9.45456 4.72728 9.45456
555 2 0.0 9.45456 4.72728 11.8182
556 2 0.0 9.45456 4.72728 14.1818
557 2 0.0 9.45456 4.72728 16.5455
558 2 0.0 9.45456 4.72728 18.9091
559 2 0.0 9.45456 4.72728 21.2728
560 2 0.0 9.45456 4.72728 23.6364
561 2 0.0 9.45456 7.09092 0.0
562 2 0.0 9.45456 7.09092 2.36364
563 2 0.0 9.45456 7.09092 4.72728
564 2 0.0 9.45456 7.09092 7.09092
565 2 0.0 9.45456 7.09092 9.45456
566 2 0.0 9.45456 7.09092 11.8182
567 2 0.0 9.45456 7.09092 14.1818
568 2 0.0 9.45456 7.09092 16.5455
569 2 0.0 9.45456 7.09092 18.9091
570 2 0.0 9.45456 7.09092 21.2728
571 2 0.0 9.45456 7.09092 23.6364
572 2 0.0 9.45456 9.45456 0.0
573 2 0.0 9.45456 9.45456 2.36364
574 2 0.0 9.45456 9.45456 4.72728
575 2 0.0 9.45456 9.45456 7.09092
576 2 0.0 9.45456 9.45456 9.45456
577 2 0.0 9.45456 9.45456 16.5455
578 2 0.0 9.45456 9.45456 18.9091
579 2 0.0 9.45456 9.45456 21.2728
580 2 0.0 9.45456 9.45456 23.6364
581 2 0.0 9.45456 11.8182 0.0
582 2 0.0 9.45456 11.8182 2.36364
583 2 0.0 9.45456 11.8182 4.72728
584 2 0.0 9.45456 11.8182 7.09092
585 2 0.0 9.45456 11.8182 18.9091
586 2 0.0 9.45456 11.8182 21.2728
587 2 0.0 9.45456 11.8182 23.6364
588 2 0.0 9.45456 14.1818 0.0
589 2 0.0 9.45456 14.1818 2.36364
590 2 0.0 9.45456 14.1818 4.72728
591 2 0.0 9.45456 14.1818 7.09092
592 2 0.0 9.45456 14.1818 18.9091
593 2 0.0 9.45456 14.1818 21.2728
594 2 0.0 9.45456 14.1818 23.6364
595 2 0.0 9.45456 16.5455 0.0
596 2 0.0 9.45456 16.5455 2.36364
597 2 0.0 9.45456 16.5455 4.72728
598 2 0.0 9.45456 16.5455 7.09092
599 2 0.0 9.45456 16.5455 9.45456
600 2 0.0 9.45456 16.5455 16.5455
601 2 0.0 9.45456 16.5455 18.9091
602 2 0.0 9.45456 16.5455 21.2728
603 2 0.0 9.45456 16.5455 23.6364
604 2 0.0 9.45456 18.9091 0.0
605 2 0.0 9.45456 18.9091 2.36364
606 2 0.0 9.45456 18.9091 4.72728
607 2 0.0 9.45456 18.9091 7.09092
608 2 0.0 9.45456 18.9091 9.45456
609 2 0.0 9.45456 18.9091 11.8182
610 2 0.0 9.45456 18.9091 14.1818
611 2 0.0 9.45456 18.9091 16.5455
612 2 0.0 9.45456 18.9091 18.9091
613 2 0.0 9.45456 18.9091 21.2728
614 2 0.0 9.45456 18.9091 23.6364
615 2 0.0 9.45456 21.2728 0.0
616 2 0.0 9.45456 21.2728 2.36364
617 2 0.0 9.45456 21.2728 4.72728
618 2 0.0 9.45456 21.2728 7.09092
619 2 0.0 9.45456 21.2728 9.45456
620 2 0.0 9.45456 21.2728 11.8182
621 2 0.0 9.45456 21.2728 14.1818
622 2 0.0 9.45456 21.2728 16.5455
623 2 0.0 9.45456 21.2728 18.9091
624 2 0.0 9.45456 21.2728 21.2728
625 2 0.0 9.45456 21.2728 23.6364
626 2 0.0 9.45456 23.6364 0.0
627 2 0.0 9.45456 23.6364 2.36364
628 2 0.0 9.45456 23.6364 4.72728
629 2 0.0 9.45456 23.6364 7.09092
630 2 0.0 9.45456 23.6364 9.45456
631 2 0.0 9.45456 23.6364 11.8182
632 2 0.0 9.45456 23.6364 14.1818
633 2 0.0 9.45456 23.6364 16.5455
634 2 0.0 9.45456 23.6364 18.9091
635 2 0.0 9.45456 23.6364 21.2728
636 2 0.0 9.45456 23.6364 23.6364
637 2 0.0 11.8182 0.0 0.0
638 2 0.0 11.8182 0.0 2.36364
639 2 0.0 11.8182 0.0 4.72728
640 2 0.0 11.8182 0.0 7.09092
641 2 0.0 11.8182 0.0 9.45456
642 2 0.0 11.8182 0.0 11.8182
643 2 0.0 11.8182 0.0 14.1818
644 2 0.0 11.8182 0.0 16.5455
645 2 0.0 11.8182 0.0 18.9091
646 2 0.0 11.8182 0.0 21.2728
647 2 0.0 11.8182 0.0 23.6364
648 2 0.0 11.8182 2.36364 0.0
649 2 0.0 11.8182 2.36364 2.36364
650 2 0.0 11.8182 2.36364 4.72728
651 2 0.0 11.8182 2.36364 7.09092
652 2 0.0 11.8182 2.36364 9.45456
653 2 0.0 11.8182 2.36364 11.8182
654 2 0.0 11.8182 2.36364 14.1818
655 2 0.0 11.8182 2.36364 16.5455
656 2 0.0 11.8182 2.36364 18.9091
657 2 0.0 11.8182 2.36364 21.2728
658 2 0.0 11.8182 2.36364 23.6364
659 2 0.0 11.8182 4.72728 0.0
660 2 0.0 11.8182 4.72728 2.36364
661 2 0.0 11.8182 4.72728 4.72728
662 2 0.0 11.8182 4.72728 7.09092
663 2 0.0 11.8182 4.72728 9.45456
664 2 0.0 11.8182 4.72728 11.8182
665 2 0.0 11.8182 4.72728 14.1818
666 2 0.0 11.8182 4.72728 16.5455
667 2 0.0 11.8182 4.72728 18.9091
668 2 0.0 11.8182 4.72728 21.2728
669 2 0.0 11.8182 4.72728 23.6364
670 2 0.0 11.8182 7.09092 0.0
671 2 0.0 11.8182 7.09092 2.36364
672 2 0.0 11.8182 7.09092 4.72728
673 2 0.0 11.8182 7.09092 7.09092
674 2 0.0 11.8182 7.09092 9.45456
675 2 0.0 11.8182 7.09092 11.8182
676 2 0.0 11.8182 7.09092 14.1818
677 2 0.0 11.8182 7.09092 16.5455
678 2 0.0 11.8182 7.09092 18.9091
679 2 0.0 11.8182 7.09092 21.2728
680 2 0.0 11.8182 7.09092 23.6364
681 2 0.0 11.8182 9.45456 0.0
682 2 0.0 11.8182 9.45456 2.36364
683 2 0.0 11.8182 9.45456 4.72728
684 2 0.0 11.8182 9.45456 7.09092
685 2 0.0 11.8182 9.45456 18.9091
686 2 0.0 11.8182 9.45456 21.2728
687 2 0.0 11.8182 9.45456 23.6364
688 2 0.0 11.8182 11.8182 0.0
689 2 0.0 11.8182 11.8182 2.36364
690 2 0.0 11.8182 11.8182 4.72728
691 2 0.0 11.8182 11.8182 7.09092
692 2 0.0 11.8182 11.8182 18.9091
693 2 0.0 11.8182 11.8182 21.2728
694 2 0.0 11.8182 11.8182 23.6364
695 2 0.0 11.8182 14.1818 0.0
696 2 0.0 11.8182 14.1818 2.36364
697 2 0.0 11.8182 14.1818 4.72728
698 2 0.0 11.8182 14.1818 7.09092
699 2 0.0 11.8182 14.1818 18.9091
700 2 0.0 11.8182 14.1818 21.2728
701 2 0.0 11.8182 14.1818 23.6364
702 2 0.0 11.8182 16.5455 0.0
703 2 0.0 11.8182 16.5455 2.36364
704 2 0.0 11.8182 16.5455 4.72728
705 2 0.0 11.8182 16.5455 7.09092
706 2 0.0 11.8182 16.5455 18.9091
707 2 0.0 11.8182 16.5455 21.2728
708 2 0.0 11.8182 16.5455 23.6364
709 2 0.0 11.8182 18.9091 0.0
710 2 0.0 11.8182 18.9091 2.36364
711 2 0.0 11.8182 18.9091 4.72728
712 2 0.0 11.8182 18.9091 7.09092
713 2 0.0 11.8182 18.9091 9.45456
714 2 0.0 11.8182 18.9091 11.8182
715 2 0.0 11.8182 18.9091 14.1818
716 2 0.0 11.8182 18.9091 16.5455
717 2 0.0 11.8182 18.9091 18.9091
718 2 0.0 11.8182 18.9091 21.2728
719 2 0.0 11.8182 18.9091 23.6364
720 2 0.0 11.8182 21.2728 0.0
721 2 0.0 11.8182 21.2728 2.36364
722 2 0.0 11.8182 21.2728 4.72728
723 2 0.0 11.8182 21.2728 7.09092
724 2 0.0 11.8182 21.2728 9.45456
725 2 0.0 11.8182 21.2728 11.8182
726 2 0.0 11.8182 21.2728 14.1818
727 2 0.0 11.8182 21.2728 16.5455
728 2 0.0 11.8182 21.2728 18.9091
729 2 0.0 11.8182 21.2728 21.2728
730 2 0.0 11.8182 21.2728 23.6364
731 2 0.0 11.8182 23.6364 0.0
732 2 0.0 11.8182 23.6364 2.36364
733 2 0.0 11.8182 23.6364 4.72728
734 2 0.0 11.8182 23.6364 7.09092
735 2 0.0 11.8182 23.6364 9.45456
736 2 0.0 11.8182 23.6364 11.8182
737 2 0.0 11.8182 23.6364 14.1818
738 2 0.0 11.8182 23.6364 16.5455
739 2 0.0 11.8182 23.6364 18.9091
740 2 0.0 11.8182 23.6364 21.2728
741 2 0.0 11.8182 23.6364 23.6364
742 2 0.0 14.1818 0.0 0.0
743 2 0.0 14.1818 0.0 2.36364
744 2 0.0 14.1818 0.0 4.72728
745 2 0.0 14.1818 0.0 7.09092
746 2 0.0 14.1818 0.0 9.45456
747 2 0.0 14.1818 0.0 11.8182
748 2 0.0 14.1818 0.0 14.1818
749 2 0.0 14.1818 0.0 16.5455
750 2 0.0 14.1818 0.0 18.9091
751 2 0.0 14.1818 0.0 21.2728
752 2 0.0 14.1818 0.0 23.6364
753 2 0.0 14.1818 2.36364 0.0
754 2 0.0 14.1818 2.36364 2.36364
755 2 0.0 14.1818 2.36364 4.72728
756 2 0.0 14.1818 2.36364 7.09092
757 2 0.0 14.1818 2.36364 9.45456
758 2 0.0 14.1818 2.36364 11.8182
759 2 0.0 14.1818 2.36364 14.1818
760 2 0.0 14.1818 2.36364 16.5455
761 2 0.0 14.1818 2.36364 18.9091
762 2 0.0 14.1818 2.36364 21.2728
763 2 0.0 14.1818 2.36364 23.6364
764 2 0.0 14.1818 4.72728 0.0
765 2 0.0 14.1818 4.72728 2.36364
766 2 0.0 14.1818 4.72728 4.72728
767 2 0.0 14.1818 4.72728 7.09092
768 2 0.0 14.1818 4.72728 9.45456
769 2 0.0 14.1818 4.72728 11.8182
770 2 0.0 14.1818 4.72728 14.1818
771 2 0.0 14.1818 4.72728 16.5455
772 2 0.0 14.1818 4.72728 18.9091
773 2 0.0 14.1818 4.72728 21.2728
774 2 0.0 14.1818 4.72728 23.6364
775 2 0.0 14.1818 7.09092 0.0
776 2 0.0 14.1818 7.09092 2.36364
777 2 0.0 14.1818 7.09092 4.72728
778 2 0.0 14.1818 7.09092 7.09092
779 2 0.0 14.1818 7.09092 9.45456
780 2 0.0 14.1818 7.09092 11.8182
781 2 0.0 14.1818 7.09092 14.1818
782 2 0.0 14.1818 7.09092 16.5455
783 2 0.0 14.1818 7.09092 18.9091
784 2 0.0 14.1818 7.09092 21.2728
785 2 0.0 14.1818 7.09092 23.6364
786 2 0.0 14.1818 9.45456 0.0
787 2 0.0 14.1818 9.45456 2.36364
788 2 0.0 14.1818 9.45456 4.72728
789 2 0.0 14.1818 9.45456 7.09092
790 2 0.0 14.1818 9.45456 18.9091
791 2 0.0 14.1818 9.45456 21.2728
792 2 0.0 14.1818 9.45456 23.6364
793 2 0.0 14.1818 11.8182 0.0
794 2 0.0 14.1818 11.8182 2.36364
795 2 0.0 14.1818 11.8182 4.72728
796 2 0.0 14.1818 11.8182 7.09092
797 2 0.0 14.1818 11.8182 18.9091
798 2 0.0 14.1818 11.8182 21.2728
799 2 0.0 14.1818 11.8182 23.6364
800 2 0.0 14.1818 14.1818 0.0
801 2 0.0 14.1818 14.1818 2.36364
802 2 0.0 14.1818 14.1818 4.72728
803 2 0.0 14.1818 14.1818 7.09092
804 2 0.0 14.1818 14.1818 18.9091
805 2 0.0 14.1818 14.1818 21.2728
806 2 0.0 14.1818 14.1818 23.6364
807 2 0.0 14.1818 16.5455 0.0
808 2 0.0 14.1818 16.5455 2.36364
809 2 0.0 14.1818 16.5455 4.72728
810 2 0.0 14.1818 16.5455 7.09092
811 2 0.0 14.1818 16.5455 18.9091
812 2 0.0 14.1818 16.5455 21.2728
813 2 0.0 14.1818 16.5455 23.6364
814 2 0.0 14.1818 18.9091 0.0
815 2 0.0 14.1818 18.9091 2.36364
816 2 0.0 14.1818 18.9091 4.72728
817 2 0.0 14.1818 18.9091 7.09092
818 2 0.0 14.1818 18.9091 9.45456
819 2 0.0 14.1818 18.9091 11.8182
820 2 0.0 14.1818 18.9091 14.1818
821 2 0.0 14.1818 18.9091 16.5455
822 2 0.0 14.1818 18.9091 18.9091
823 2 0.0 14.1818 18.9091 21.2728
824 2 0.0 14.1818 18.9091 23.6364
825 2 0.0 14.1818 21.2728 0.0
826 2 0.0 14.1818 21.2728 2.36364
827 2 0.0 14.1818 21.2728 4.72728
828 2 0.0 14.1818 21.2728 7.09092
829 2 0.0 14.1818 21.2728 9.45456
830 2 0.0 14.1818 21.2728 11.8182
831 2 0.0 14.1818 21.2728 14.1818
832 2 0.0 14.1818 21.2728 16.5455
833 2 0.0 14.1818 21.2728 18.9091
834 2 0.0 14.1818 21.2728 21.2728
835 2 0.0 14.1818 21.2728 23.6364
836 2 0.0 14.1818 23.6364 0.0
837 2 0.0 14.1818 23.6364 2.36364
838 2 0.0 14.1818 23.6364 4.72728
839 2 0.0 14.1818 23.6364 7.09092
840 2 0.0 14.1818 23.6364 9.45456
841 2 0.0 14.1818 23.6364 11.8182
842 2 0.0 14.1818 23.6364 14.1818
843 2 0.0 14.1818 23.6364 16.5455
844 2 0.0 14.1818 23.6364 18.9091
845 2 0.0 14.1818 23.6364 21.2728
846 2 0.0 14.1818 23.6364 23.6364
847 2 0.0 16.5455 0.0 0.0
848 2 0.0 16.5455 0.0 2.36364
849 2 0.0 16.5455 0.0 4.72728
850 2 0.0 16.5455 0.0 7.09092
851 2 0.0 16.5455 0.0 9.45456
852 2 0.0 16.5455 0.0 11.8182
853 2 0.0 16.5455 0.0 14.1818
854 2 0.0 16.5455 0.0 16.5455
855 2 0.0 16.5455 0.0 18.9091
856 2 0.0 16.5455 0.0 21.2728
857 2 0.0 16.5455 0.0 23.6364
858 2 0.0 16.5455 2.36364 0.0
859 2 0.0 16.5455 2.36364 2.36364
860 2 0.0 16.5455 2.36364 4.72728
861 2 0.0 16.5455 2.36364 7.09092
862 2 0.0 16.5455 2.36364 9.45456
863 2 0.0 16.5455 2.36364 11.8182
864 2 0.0 16.5455 2.36364 14.1818
865 2 0.0 16.5455 2.36364 16.5455
866 2 0.0 16.5455 2.36364 18.9091
867 2 0.0 16.5455 2.36364 21.2728
868 2 0.0 16.5455 2.36364 23.6364
869 2 0.0 16.5455 4.72728 0.0
870 2 0.0 16.5455 4.72728 2.36364
871 2 0.0 16.5455 4.72728 4.72728
872 2 0.0 16.5455 4.72728 7.09092
873 2 0.0 16.5455 4.72728 9.45456
874 2 0.0 16.5455 4.72728 11.8182
875 2 0.0 16.5455 4.72728 14.1818
876 2 0.0 16.5455 4.72728 16.5455
877 2 0.0 16.5455 4.72728 18.9091
878 2 0.0 16.5455 4.72728 21.2728
879 2 0.0 16.5455 4.72728 23.6364
880 2 0.0 16.5455 7.09092 0.0
881 2 0.0 16.5455 7.09092 2.36364
882 2 0.0 16.5455 7.09092 4.72728
883 2 0.0 16.5455 7.09092 7.09092
884 2 0.0 16.5455 7.09092 9.45456
885 2 0.0 16.5455 7.09092 11.8182
886 2 0.0 16.5455 7.09092 14.1818
887 2 0.0 16.5455 7.09092 16.5455
888 2 0.0 16.5455 7.09092 18.9091
889 2 0.0 16.5455 7.09092 21.2728
890 2 0.0 16.5455 7.09092 23.6364
891 2 0.0 16.5455 9.45456 0.0
892 2 0.0 16.5455 9.45456 2.36364
893 2 0.0 16.5455 9.45456 4.72728
894 2 0.0 16.5455 9.45456 7.09092
895 2 0.0 16.5455 9.45456 9.45456
896 2 0.0 16.5455 9.45456 16.5455
897 2 0.0 16.5455 9.45456 18.9091
898 2 0.0 16.5455 9.45456 21.2728
899 2 0.0 16.5455 9.45456 23.6364
900 2 0.0 16.5455 11.8182 0.0
901 2 0.0 16.5455 11.8182 2.36364
902 2 0.0 16.5455 11.8182 4.72728
903 2 0.0 16.5455 11.8182 7.09092
904 2 0.0 16.5455 11.8182 18.9091
905 2 0.0 16.5455 11.8182 21.2728
906 2 0.0 16.5455 11.8182 23.6364
907 2 0.0 16.5455 14.1818 0.0
908 2 0.0 16.5455 14.1818 2.36364
909 2 0.0 16.5455 14.1818 4.72728
910 2 0.0 16.5455 14.1818 7.09092
911 2 0.0 16.5455 14.1818 18.9091
912 2 0.0 16.5455 14.1818 21.2728
913 2 0.0 16.5455 14.1818 23.6364
914 2 0.0 16.5455 16.5455 0.0
915 2 0.0 16.5455 16.5455 2.36364