# LAMMPS data file written by Ovito Basic 3.0.0-dev791
876 atoms
5 atom types
0.0 26.343000412 xlo xhi
0.0 26.343000412 ylo yhi
0.0 26.343000412 zlo zhi

Atoms  # charge

1 1 0.0 7.515657902 7.515657902 0.0
2 1 0.0 18.82734108 18.82734108 0.0
3 1 0.0 18.82734108 7.515657902 0.0
4 1 0.0 7.515657902 18.82734108 0.0
5 1 0.0 0.0 7.515657902 7.515657902
6 1 0.0 0.0 18.82734108 18.82734108
7 1 0.0 0.0 18.82734108 7.515657902
8 1 0.0 0.0 7.515657902 18.82734108
9 1 0.0 7.515657902 0.0 7.515657902
10 1 0.0 18.82734108 0.0 18.82734108
11 1 0.0 7.515657902 0.0 18.82734108
12 1 0.0 18.82734108 0.0 7.515657902
13 1 0.0 7.515657902 20.687158585 13.171500206
14 1 0.0 18.82734108 5.655842304 13.171500206
15 1 0.0 18.82734108 20.687158585 13.171500206
16 1 0.0 7.515657902 5.655842304 13.171500206
17 1 0.0 0.0 20.687158585 20.687158585
18 1 0.0 0.0 5.655842304 5.655842304
19 1 0.0 0.0 5.655842304 20.687158585
20 1 0.0 0.0 20.687158585 5.655842304
21 1 0.0 7.515657902 13.171500206 20.687158585
22 1 0.0 18.82734108 13.171500206 5.655842304
23 1 0.0 7.515657902 13.171500206 5.655842304
24 1 0.0 18.82734108 13.171500206 20.687158585
25 1 0.0 20.687158585 7.515657902 13.171500206
26 1 0.0 5.655842304 18.82734108 13.171500206
27 1 0.0 5.655842304 7.515657902 13.171500206
28 1 0.0 20.687158585 18.82734108 13.171500206
29 1 0.0 13.171500206 7.515657902 20.687158585
30 1 0.0 13.171500206 18.82734108 5.655842304
31 1 0.0 13.171500206 18.82734108 20.687158585
32 1 0.0 13.171500206 7.515657902 5.655842304
33 1 0.0 20.687158585 0.0 20.687158585
34 1 0.0 5.655842304 0.0 5.655842304
35 1 0.0 20.687158585 0.0 5.655842304
36 1 0.0 5.655842304 0.0 20.687158585
37 1 0.0 20.687158585 20.687158585 0.0
38 1 0.0 5.655842304 5.655842304 0.0
39 1 0.0 5.655842304 20.687158585 0.0
40 1 0.0 20.687158585 5.655842304 0.0
41 1 0.0 13.171500206 20.687158585 7.515657902
42 1 0.0 13.171500206 5.655842304 18.82734108
43 1 0.0 13.171500206 5.655842304 7.515657902
44 1 0.0 13.171500206 20.687158585 18.82734108
45 1 0.0 20.687158585 13.171500206 7.515657902
46 1 0.0 5.655842304 13.171500206 18.82734108
47 1 0.0 20.687158585 13.171500206 18.82734108
48 1 0.0 5.655842304 13.171500206 7.515657902
49 2 0.0 8.340193748 6.403983593 24.967895508
50 2 0.0 18.002807617 19.93901825 1.375105143
51 2 0.0 18.002807617 19.93901825 24.967895508
52 2 0.0 8.340193748 6.403983593 1.375105143
53 2 0.0 18.002807617 6.403983593 1.375105143
54 2 0.0 8.340193748 19.93901825 24.967895508
55 2 0.0 8.340193748 19.93901825 1.375105143
56 2 0.0 18.002807617 6.403983593 24.967895508
57 2 0.0 24.967895508 8.340193748 6.403983593
58 2 0.0 1.375105143 18.002807617 19.93901825
59 2 0.0 24.967895508 18.002807617 19.93901825
60 2 0.0 1.375105143 8.340193748 6.403983593
61 2 0.0 1.375105143 18.002807617 6.403983593
62 2 0.0 24.967895508 8.340193748 19.93901825
63 2 0.0 1.375105143 8.340193748 19.93901825
64 2 0.0 24.967895508 18.002807617 6.403983593
65 2 0.0 6.403983593 24.967895508 8.340193748
66 2 0.0 19.93901825 1.375105143 18.002807617
67 2 0.0 19.93901825 24.967895508 18.002807617
68 2 0.0 6.403983593 1.375105143 8.340193748
69 2 0.0 6.403983593 1.375105143 18.002807617
70 2 0.0 19.93901825 24.967895508 8.340193748
71 2 0.0 19.93901825 1.375105143 8.340193748
72 2 0.0 6.403983593 24.967895508 18.002807617
73 2 0.0 6.403983593 8.340193748 1.375105143
74 2 0.0 19.93901825 18.002807617 24.967895508
75 2 0.0 19.93901825 18.002807617 1.375105143
76 2 0.0 6.403983593 8.340193748 24.967895508
77 2 0.0 6.403983593 18.002807617 24.967895508
78 2 0.0 19.93901825 8.340193748 1.375105143
79 2 0.0 19.93901825 8.340193748 24.967895508
80 2 0.0 6.403983593 18.002807617 1.375105143
81 2 0.0 8.340193748 24.967895508 19.93901825
82 2 0.0 18.002807617 1.375105143 6.403983593
83 2 0.0 18.002807617 24.967895508 6.403983593
84 2 0.0 8.340193748 1.375105143 19.93901825
85 2 0.0 18.002807617 1.375105143 19.93901825
86 2 0.0 8.340193748 24.967895508 6.403983593
87 2 0.0 8.340193748 1.375105143 6.403983593
88 2 0.0 18.002807617 24.967895508 19.93901825
89 2 0.0 24.967895508 6.403983593 18.002807617
90 2 0.0 1.375105143 19.93901825 8.340193748
91 2 0.0 24.967895508 19.93901825 8.340193748
92 2 0.0 1.375105143 6.403983593 18.002807617
93 2 0.0 1.375105143 6.403983593 8.340193748
94 2 0.0 24.967895508 19.93901825 18.002807617
95 2 0.0 1.375105143 19.93901825 18.002807617
96 2 0.0 24.967895508 6.403983593 8.340193748
97 2 0.0 8.340193748 19.575483322 11.796393394
98 2 0.0 18.002807617 6.76751709 14.54660511
99 2 0.0 18.002807617 6.76751709 11.796393394
100 2 0.0 8.340193748 19.575483322 14.54660511
101 2 0.0 18.002807617 19.575483322 14.54660511
102 2 0.0 8.340193748 6.76751709 11.796393394
103 2 0.0 8.340193748 6.76751709 14.54660511
104 2 0.0 18.002807617 19.575483322 11.796393394
105 2 0.0 24.967895508 21.511693954 19.575483322
106 2 0.0 1.375105143 4.831306458 6.76751709
107 2 0.0 24.967895508 4.831306458 6.76751709
108 2 0.0 1.375105143 21.511693954 19.575483322
109 2 0.0 1.375105143 4.831306458 19.575483322
110 2 0.0 24.967895508 21.511693954 6.76751709
111 2 0.0 1.375105143 21.511693954 6.76751709
112 2 0.0 24.967895508 4.831306458 19.575483322
113 2 0.0 6.403983593 11.796393394 21.511693954
114 2 0.0 19.93901825 14.54660511 4.831306458
115 2 0.0 19.93901825 11.796393394 4.831306458
116 2 0.0 6.403983593 14.54660511 21.511693954
117 2 0.0 6.403983593 14.54660511 4.831306458
118 2 0.0 19.93901825 11.796393394 21.511693954
119 2 0.0 19.93901825 14.54660511 21.511693954
120 2 0.0 6.403983593 11.796393394 4.831306458
121 2 0.0 6.403983593 21.511693954 14.54660511
122 2 0.0 19.93901825 4.831306458 11.796393394
123 2 0.0 19.93901825 4.831306458 14.54660511
124 2 0.0 6.403983593 21.511693954 11.796393394
125 2 0.0 6.403983593 4.831306458 11.796393394
126 2 0.0 19.93901825 21.511693954 14.54660511
127 2 0.0 19.93901825 21.511693954 11.796393394
128 2 0.0 6.403983593 4.831306458 14.54660511
129 2 0.0 8.340193748 11.796393394 6.76751709
130 2 0.0 18.002807617 14.54660511 19.575483322
131 2 0.0 18.002807617 11.796393394 19.575483322
132 2 0.0 8.340193748 14.54660511 6.76751709
133 2 0.0 18.002807617 14.54660511 6.76751709
134 2 0.0 8.340193748 11.796393394 19.575483322
135 2 0.0 8.340193748 14.54660511 19.575483322
136 2 0.0 18.002807617 11.796393394 6.76751709
137 2 0.0 24.967895508 19.575483322 4.831306458
138 2 0.0 1.375105143 6.76751709 21.511693954
139 2 0.0 24.967895508 6.76751709 21.511693954
140 2 0.0 1.375105143 19.575483322 4.831306458
141 2 0.0 1.375105143 19.575483322 21.511693954
142 2 0.0 24.967895508 6.76751709 4.831306458
143 2 0.0 1.375105143 6.76751709 4.831306458
144 2 0.0 24.967895508 19.575483322 21.511693954
145 2 0.0 21.511693954 6.403983593 11.796393394
146 2 0.0 4.831306458 19.93901825 14.54660511
147 2 0.0 4.831306458 19.93901825 11.796393394
148 2 0.0 21.511693954 6.403983593 14.54660511
149 2 0.0 4.831306458 6.403983593 14.54660511
150 2 0.0 21.511693954 19.93901825 11.796393394
151 2 0.0 21.511693954 19.93901825 14.54660511
152 2 0.0 4.831306458 6.403983593 11.796393394
153 2 0.0 11.796393394 8.340193748 19.575483322
154 2 0.0 14.54660511 18.002807617 6.76751709
155 2 0.0 11.796393394 18.002807617 6.76751709
156 2 0.0 14.54660511 8.340193748 19.575483322
157 2 0.0 14.54660511 18.002807617 19.575483322
158 2 0.0 11.796393394 8.340193748 6.76751709
159 2 0.0 14.54660511 8.340193748 6.76751709
160 2 0.0 11.796393394 18.002807617 19.575483322
161 2 0.0 19.575483322 24.967895508 21.511693954
162 2 0.0 6.76751709 1.375105143 4.831306458
163 2 0.0 6.76751709 24.967895508 4.831306458
164 2 0.0 19.575483322 1.375105143 21.511693954
165 2 0.0 19.575483322 1.375105143 4.831306458
166 2 0.0 6.76751709 24.967895508 21.511693954
167 2 0.0 6.76751709 1.375105143 21.511693954
168 2 0.0 19.575483322 24.967895508 4.831306458
169 2 0.0 19.575483322 8.340193748 14.54660511
170 2 0.0 6.76751709 18.002807617 11.796393394
171 2 0.0 6.76751709 18.002807617 14.54660511
172 2 0.0 19.575483322 8.340193748 11.796393394
173 2 0.0 19.575483322 18.002807617 11.796393394
174 2 0.0 6.76751709 8.340193748 14.54660511
175 2 0.0 6.76751709 8.340193748 11.796393394
176 2 0.0 19.575483322 18.002807617 14.54660511
177 2 0.0 21.511693954 24.967895508 6.76751709
178 2 0.0 4.831306458 1.375105143 19.575483322
179 2 0.0 4.831306458 24.967895508 19.575483322
180 2 0.0 21.511693954 1.375105143 6.76751709
181 2 0.0 4.831306458 1.375105143 6.76751709
182 2 0.0 21.511693954 24.967895508 19.575483322
183 2 0.0 21.511693954 1.375105143 19.575483322
184 2 0.0 4.831306458 24.967895508 6.76751709
185 2 0.0 11.796393394 6.403983593 4.831306458
186 2 0.0 14.54660511 19.93901825 21.511693954
187 2 0.0 11.796393394 19.93901825 21.511693954
188 2 0.0 14.54660511 6.403983593 4.831306458
189 2 0.0 14.54660511 6.403983593 21.511693954
190 2 0.0 11.796393394 19.93901825 4.831306458
191 2 0.0 14.54660511 19.93901825 4.831306458
192 2 0.0 11.796393394 6.403983593 21.511693954
193 2 0.0 21.511693954 19.575483322 24.967895508
194 2 0.0 4.831306458 6.76751709 1.375105143
195 2 0.0 4.831306458 6.76751709 24.967895508
196 2 0.0 21.511693954 19.575483322 1.375105143
197 2 0.0 4.831306458 19.575483322 1.375105143
198 2 0.0 21.511693954 6.76751709 24.967895508
199 2 0.0 21.511693954 6.76751709 1.375105143
200 2 0.0 4.831306458 19.575483322 24.967895508
201 2 0.0 11.796393394 21.511693954 6.403983593
202 2 0.0 14.54660511 4.831306458 19.93901825
203 2 0.0 11.796393394 4.831306458 19.93901825
204 2 0.0 14.54660511 21.511693954 6.403983593
205 2 0.0 14.54660511 4.831306458 6.403983593
206 2 0.0 11.796393394 21.511693954 19.93901825
207 2 0.0 14.54660511 21.511693954 19.93901825
208 2 0.0 11.796393394 4.831306458 6.403983593
209 2 0.0 19.575483322 11.796393394 8.340193748
210 2 0.0 6.76751709 14.54660511 18.002807617
211 2 0.0 6.76751709 11.796393394 18.002807617
212 2 0.0 19.575483322 14.54660511 8.340193748
213 2 0.0 19.575483322 14.54660511 18.002807617
214 2 0.0 6.76751709 11.796393394 8.340193748
215 2 0.0 6.76751709 14.54660511 8.340193748
216 2 0.0 19.575483322 11.796393394 18.002807617
217 2 0.0 19.575483322 21.511693954 1.375105143
218 2 0.0 6.76751709 4.831306458 24.967895508
219 2 0.0 6.76751709 4.831306458 1.375105143
220 2 0.0 19.575483322 21.511693954 24.967895508
221 2 0.0 19.575483322 4.831306458 24.967895508
222 2 0.0 6.76751709 21.511693954 1.375105143
223 2 0.0 6.76751709 21.511693954 24.967895508
224 2 0.0 19.575483322 4.831306458 1.375105143
225 2 0.0 21.511693954 11.796393394 19.93901825
226 2 0.0 4.831306458 14.54660511 6.403983593
227 2 0.0 4.831306458 11.796393394 6.403983593
228 2 0.0 21.511693954 14.54660511 19.93901825
229 2 0.0 4.831306458 14.54660511 19.93901825
230 2 0.0 21.511693954 11.796393394 6.403983593
231 2 0.0 21.511693954 14.54660511 6.403983593
232 2 0.0 4.831306458 11.796393394 19.93901825
233 2 0.0 11.796393394 19.575483322 18.002807617
234 2 0.0 14.54660511 6.76751709 8.340193748
235 2 0.0 11.796393394 6.76751709 8.340193748
236 2 0.0 14.54660511 19.575483322 18.002807617
237 2 0.0 14.54660511 19.575483322 8.340193748
238 2 0.0 11.796393394 6.76751709 18.002807617
239 2 0.0 14.54660511 6.76751709 18.002807617
240 2 0.0 11.796393394 19.575483322 8.340193748
241 3 0.0 7.818602085 5.352897644 24.53323555
242 3 0.0 18.524396896 20.990102768 1.809764504
243 3 0.0 18.524396896 20.990102768 24.53323555
244 3 0.0 7.818602085 5.352897644 1.809764504
245 3 0.0 18.524396896 5.352897644 1.809764504
246 3 0.0 7.818602085 20.990102768 24.53323555
247 3 0.0 7.818602085 20.990102768 1.809764504
248 3 0.0 18.524396896 5.352897644 24.53323555
249 3 0.0 24.53323555 7.818602085 5.352897644
250 3 0.0 1.809764504 18.524396896 20.990102768
251 3 0.0 24.53323555 18.524396896 20.990102768
252 3 0.0 1.809764504 7.818602085 5.352897644
253 3 0.0 1.809764504 18.524396896 5.352897644
254 3 0.0 24.53323555 7.818602085 20.990102768
255 3 0.0 1.809764504 7.818602085 20.990102768
256 3 0.0 24.53323555 18.524396896 5.352897644
257 3 0.0 5.352897644 24.53323555 7.818602085
258 3 0.0 20.990102768 1.809764504 18.524396896
259 3 0.0 20.990102768 24.53323555 18.524396896
260 3 0.0 5.352897644 1.809764504 7.818602085
261 3 0.0 5.352897644 1.809764504 18.524396896
262 3 0.0 20.990102768 24.53323555 7.818602085
263 3 0.0 20.990102768 1.809764504 7.818602085
264 3 0.0 5.352897644 24.53323555 18.524396896
265 3 0.0 5.352897644 7.818602085 1.809764504
266 3 0.0 20.990102768 18.524396896 24.53323555
267 3 0.0 20.990102768 18.524396896 1.809764504
268 3 0.0 5.352897644 7.818602085 24.53323555
269 3 0.0 5.352897644 18.524396896 24.53323555
270 3 0.0 20.990102768 7.818602085 1.809764504
271 3 0.0 20.990102768 7.818602085 24.53323555
272 3 0.0 5.352897644 18.524396896 1.809764504
273 3 0.0 7.818602085 24.53323555 20.990102768
274 3 0.0 18.524396896 1.809764504 5.352897644
275 3 0.0 18.524396896 24.53323555 5.352897644
276 3 0.0 7.818602085 1.809764504 20.990102768
277 3 0.0 18.524396896 1.809764504 20.990102768
278 3 0.0 7.818602085 24.53323555 5.352897644
279 3 0.0 7.818602085 1.809764504 5.352897644
280 3 0.0 18.524396896 24.53323555 20.990102768
281 3 0.0 24.53323555 5.352897644 18.524396896
282 3 0.0 1.809764504 20.990102768 7.818602085
283 3 0.0 24.53323555 20.990102768 7.818602085
284 3 0.0 1.809764504 5.352897644 18.524396896
285 3 0.0 1.809764504 5.352897644 7.818602085
286 3 0.0 24.53323555 20.990102768 18.524396896
287 3 0.0 1.809764504 20.990102768 18.524396896
288 3 0.0 24.53323555 5.352897644 7.818602085
289 3 0.0 7.818602085 18.524396896 11.36173439
290 3 0.0 18.524396896 7.818603039 14.981265068
291 3 0.0 18.524396896 7.818603039 11.36173439
292 3 0.0 7.818602085 18.524396896 14.981265068
293 3 0.0 18.524396896 18.524396896 14.981265068
294 3 0.0 7.818602085 7.818603039 11.36173439
295 3 0.0 7.818602085 7.818603039 14.981265068
296 3 0.0 18.524396896 18.524396896 11.36173439
297 3 0.0 5.352897644 11.36173439 20.990102768
298 3 0.0 20.990102768 14.981265068 5.352898121
299 3 0.0 20.990102768 11.36173439 5.352898121
300 3 0.0 5.352897644 14.981265068 20.990102768
301 3 0.0 5.352897644 14.981265068 5.352898121
302 3 0.0 20.990102768 11.36173439 20.990102768
303 3 0.0 20.990102768 14.981265068 20.990102768
304 3 0.0 5.352897644 11.36173439 5.352898121
305 3 0.0 5.352897644 20.990102768 14.981265068
306 3 0.0 20.990102768 5.352898121 11.36173439
307 3 0.0 20.990102768 5.352898121 14.981265068
308 3 0.0 5.352897644 20.990102768 11.36173439
309 3 0.0 5.352897644 5.352898121 11.36173439
310 3 0.0 20.990102768 20.990102768 14.981265068
311 3 0.0 20.990102768 20.990102768 11.36173439
312 3 0.0 5.352897644 5.352898121 14.981265068
313 3 0.0 7.818602085 11.36173439 7.818603039
314 3 0.0 18.524396896 14.981265068 18.524396896
315 3 0.0 18.524396896 11.36173439 18.524396896
316 3 0.0 7.818602085 14.981265068 7.818603039
317 3 0.0 18.524396896 14.981265068 7.818603039
318 3 0.0 7.818602085 11.36173439 18.524396896
319 3 0.0 7.818602085 14.981265068 18.524396896
320 3 0.0 18.524396896 11.36173439 7.818603039
321 3 0.0 11.36173439 7.818602085 18.524396896
322 3 0.0 14.981265068 18.524396896 7.818603039
323 3 0.0 11.36173439 18.524396896 7.818603039
324 3 0.0 14.981265068 7.818602085 18.524396896
325 3 0.0 14.981265068 18.524396896 18.524396896
326 3 0.0 11.36173439 7.818602085 7.818603039
327 3 0.0 14.981265068 7.818602085 7.818603039
328 3 0.0 11.36173439 18.524396896 18.524396896
329 3 0.0 11.36173439 5.352897644 5.352898121
330 3 0.0 14.981265068 20.990102768 20.990102768
331 3 0.0 11.36173439 20.990102768 20.990102768
332 3 0.0 14.981265068 5.352897644 5.352898121
333 3 0.0 14.981265068 5.352897644 20.990102768
334 3 0.0 11.36173439 20.990102768 5.352898121
335 3 0.0 14.981265068 20.990102768 5.352898121
336 3 0.0 11.36173439 5.352897644 20.990102768
337 3 0.0 8.482445717 4.689054012 23.366241455
338 3 0.0 17.860553741 21.65394783 2.97675848
339 3 0.0 17.860553741 21.65394783 23.366241455
340 3 0.0 8.482445717 4.689054012 2.97675848
341 3 0.0 17.860553741 4.689054012 2.97675848
342 3 0.0 8.482445717 21.65394783 23.366241455
343 3 0.0 8.482445717 21.65394783 2.97675848
344 3 0.0 17.860553741 4.689054012 23.366241455
345 3 0.0 23.366241455 8.482445717 4.689054012
346 3 0.0 2.97675848 17.860553741 21.65394783
347 3 0.0 23.366241455 17.860553741 21.65394783
348 3 0.0 2.97675848 8.482445717 4.689054012
349 3 0.0 2.97675848 17.860553741 4.689054012
350 3 0.0 23.366241455 8.482445717 21.65394783
351 3 0.0 2.97675848 8.482445717 21.65394783
352 3 0.0 23.366241455 17.860553741 4.689054012
353 3 0.0 4.689054012 23.366241455 8.482445717
354 3 0.0 21.65394783 2.97675848 17.860553741
355 3 0.0 21.65394783 23.366241455 17.860553741
356 3 0.0 4.689054012 2.97675848 8.482445717
357 3 0.0 4.689054012 2.97675848 17.860553741
358 3 0.0 21.65394783 23.366241455 8.482445717
359 3 0.0 21.65394783 2.97675848 8.482445717
360 3 0.0 4.689054012 23.366241455 17.860553741
361 3 0.0 4.689054012 8.482445717 2.97675848
362 3 0.0 21.65394783 17.860553741 23.366241455
363 3 0.0 21.65394783 17.860553741 2.97675848
364 3 0.0 4.689054012 8.482445717 23.366241455
365 3 0.0 4.689054012 17.860553741 23.366241455
366 3 0.0 21.65394783 8.482445717 2.97675848
367 3 0.0 21.65394783 8.482445717 23.366241455
368 3 0.0 4.689054012 17.860553741 2.97675848
369 3 0.0 8.482445717 23.366241455 21.65394783
370 3 0.0 17.860553741 2.97675848 4.689054012
371 3 0.0 17.860553741 23.366241455 4.689054012
372 3 0.0 8.482445717 2.97675848 21.65394783
373 3 0.0 17.860553741 2.97675848 21.65394783
374 3 0.0 8.482445717 23.366241455 4.689054012
375 3 0.0 8.482445717 2.97675848 4.689054012
376 3 0.0 17.860553741 23.366241455 21.65394783
377 3 0.0 23.366241455 4.689054012 17.860553741
378 3 0.0 2.97675848 21.65394783 8.482445717
379 3 0.0 23.366241455 21.65394783 8.482445717
380 3 0.0 2.97675848 4.689054012 17.860553741
381 3 0.0 2.97675848 4.689054012 8.482445717
382 3 0.0 23.366241455 21.65394783 17.860553741
383 3 0.0 2.97675848 21.65394783 17.860553741
384 3 0.0 23.366241455 4.689054012 8.482445717
385 3 0.0 8.482445717 17.860553741 10.194743156
386 3 0.0 17.860553741 8.482445717 16.148258209
387 3 0.0 17.860553741 8.482445717 10.194743156
388 3 0.0 8.482445717 17.860553741 16.148258209
389 3 0.0 17.860553741 17.860553741 16.148258209
390 3 0.0 8.482445717 8.482445717 10.194743156
391 3 0.0 8.482445717 8.482445717 16.148258209
392 3 0.0 17.860553741 17.860553741 10.194743156
393 3 0.0 4.689054012 10.194743156 21.65394783
394 3 0.0 21.65394783 16.148258209 4.689054012
395 3 0.0 21.65394783 10.194743156 4.689054012
396 3 0.0 4.689054012 16.148258209 21.65394783
397 3 0.0 4.689054012 16.148258209 4.689054012
398 3 0.0 21.65394783 10.194743156 21.65394783
399 3 0.0 21.65394783 16.148258209 21.65394783
400 3 0.0 4.689054012 10.194743156 4.689054012
401 3 0.0 4.689054012 21.65394783 16.148258209
402 3 0.0 21.65394783 4.689054012 10.194743156
403 3 0.0 21.65394783 4.689054012 16.148258209
404 3 0.0 4.689054012 21.65394783 10.194743156
405 3 0.0 4.689054012 4.689054012 10.194743156
406 3 0.0 21.65394783 21.65394783 16.148258209
407 3 0.0 21.65394783 21.65394783 10.194743156
408 3 0.0 4.689054012 4.689054012 16.148258209
409 3 0.0 8.482445717 10.194743156 8.482445717
410 3 0.0 17.860553741 16.148258209 17.860553741
411 3 0.0 17.860553741 10.194743156 17.860553741
412 3 0.0 8.482445717 16.148258209 8.482445717
413 3 0.0 17.860553741 16.148258209 8.482445717
414 3 0.0 8.482445717 10.194743156 17.860553741
415 3 0.0 8.482445717 16.148258209 17.860553741
416 3 0.0 17.860553741 10.194743156 8.482445717
417 3 0.0 10.194743156 8.482445717 17.860553741
418 3 0.0 16.148258209 17.860553741 8.482445717
419 3 0.0 10.194743156 17.860553741 8.482445717
420 3 0.0 16.148258209 8.482445717 17.860553741
421 3 0.0 16.148258209 17.860553741 17.860553741
422 3 0.0 10.194743156 8.482445717 8.482445717
423 3 0.0 16.148258209 8.482445717 8.482445717
424 3 0.0 10.194743156 17.860553741 17.860553741
425 3 0.0 10.194743156 4.689054012 4.689054012
426 3 0.0 16.148258209 21.65394783 21.65394783
427 3 0.0 10.194743156 21.65394783 21.65394783
428 3 0.0 16.148258209 4.689054012 4.689054012
429 3 0.0 16.148258209 4.689054012 21.65394783
430 3 0.0 10.194743156 21.65394783 4.689054012
431 3 0.0 16.148258209 21.65394783 4.689054012
432 3 0.0 10.194743156 4.689054012 21.65394783
433 3 0.0 9.62836647 5.252794266 22.799865723
434 3 0.0 16.714633942 21.090206146 3.543134212
435 3 0.0 16.714633942 21.090206146 22.799865723
436 3 0.0 9.62836647 5.252794266 3.543134212
437 3 0.0 16.714633942 5.252794266 3.543134212
438 3 0.0 9.62836647 21.090206146 22.799865723
439 3 0.0 9.62836647 21.090206146 3.543134212
440 3 0.0 16.714633942 5.252794266 22.799865723
441 3 0.0 22.799865723 9.62836647 5.252794266
442 3 0.0 3.543134212 16.714633942 21.090206146
443 3 0.0 22.799865723 16.714633942 21.090206146
444 3 0.0 3.543134212 9.62836647 5.252794266
445 3 0.0 3.543134212 16.714633942 5.252794266
446 3 0.0 22.799865723 9.62836647 21.090206146
447 3 0.0 3.543134212 9.62836647 21.090206146
448 3 0.0 22.799865723 16.714633942 5.252794266
449 3 0.0 5.252794266 22.799865723 9.62836647
450 3 0.0 21.090206146 3.543134212 16.714633942
451 3 0.0 21.090206146 22.799865723 16.714633942
452 3 0.0 5.252794266 3.543134212 9.62836647
453 3 0.0 5.252794266 3.543134212 16.714633942
454 3 0.0 21.090206146 22.799865723 9.62836647
455 3 0.0 21.090206146 3.543134212 9.62836647
456 3 0.0 5.252794266 22.799865723 16.714633942
457 3 0.0 5.252794266 9.62836647 3.543134212
458 3 0.0 21.090206146 16.714633942 22.799865723
459 3 0.0 21.090206146 16.714633942 3.543134212
460 3 0.0 5.252794266 9.62836647 22.799865723
461 3 0.0 5.252794266 16.714633942 22.799865723
462 3 0.0 21.090206146 9.62836647 3.543134212
463 3 0.0 21.090206146 9.62836647 22.799865723
464 3 0.0 5.252794266 16.714633942 3.543134212
465 3 0.0 9.62836647 22.799865723 21.090206146
466 3 0.0 16.714633942 3.543134212 5.252794266
467 3 0.0 16.714633942 22.799865723 5.252794266
468 3 0.0 9.62836647 3.543134212 21.090206146
469 3 0.0 16.714633942 3.543134212 21.090206146
470 3 0.0 9.62836647 22.799865723 5.252794266
471 3 0.0 9.62836647 3.543134212 5.252794266
472 3 0.0 16.714633942 22.799865723 21.090206146
473 3 0.0 22.799865723 5.252794266 16.714633942
474 3 0.0 3.543134212 21.090206146 9.62836647
475 3 0.0 22.799865723 21.090206146 9.62836647
476 3 0.0 3.543134212 5.252794266 16.714633942
477 3 0.0 3.543134212 5.252794266 9.62836647
478 3 0.0 22.799865723 21.090206146 16.714633942
479 3 0.0 3.543134212 21.090206146 16.714633942
480 3 0.0 22.799865723 5.252794266 9.62836647
481 3 0.0 9.62836647 18.424295425 9.628365517
482 3 0.0 16.714633942 7.91870594 16.714633942
483 3 0.0 16.714633942 7.91870594 9.628365517
484 3 0.0 9.62836647 18.424295425 16.714633942
485 3 0.0 16.714633942 18.424295425 16.714633942
486 3 0.0 9.62836647 7.91870594 9.628365517
487 3 0.0 9.62836647 7.91870594 16.714633942
488 3 0.0 16.714633942 18.424295425 9.628365517
489 3 0.0 22.799865723 22.799865723 18.424295425
490 3 0.0 3.543134212 3.543133497 7.91870594
491 3 0.0 22.799865723 3.543133497 7.91870594
492 3 0.0 3.543134212 22.799865723 18.424295425
493 3 0.0 3.543134212 3.543133497 18.424295425
494 3 0.0 22.799865723 22.799865723 7.91870594
495 3 0.0 3.543134212 22.799865723 7.91870594
496 3 0.0 22.799865723 3.543133497 18.424295425
497 3 0.0 9.62836647 9.628365517 7.91870594
498 3 0.0 16.714633942 16.714633942 18.424295425
499 3 0.0 16.714633942 9.628365517 18.424295425
500 3 0.0 9.62836647 16.714633942 7.91870594
501 3 0.0 16.714633942 16.714633942 7.91870594
502 3 0.0 9.62836647 9.628365517 18.424295425
503 3 0.0 9.62836647 16.714633942 18.424295425
504 3 0.0 16.714633942 9.628365517 7.91870594
505 3 0.0 22.799865723 18.424295425 3.543133497
506 3 0.0 3.543134212 7.91870594 22.799865723
507 3 0.0 22.799865723 7.91870594 22.799865723
508 3 0.0 3.543134212 18.424295425 3.543133497
509 3 0.0 3.543134212 18.424295425 22.799865723
510 3 0.0 22.799865723 7.91870594 3.543133497
511 3 0.0 3.543134212 7.91870594 3.543133497
512 3 0.0 22.799865723 18.424295425 22.799865723
513 3 0.0 18.424295425 22.799865723 22.799865723
514 3 0.0 7.91870594 3.543134212 3.543133497
515 3 0.0 7.91870594 22.799865723 3.543133497
516 3 0.0 18.424295425 3.543134212 22.799865723
517 3 0.0 18.424295425 3.543134212 3.543133497
518 3 0.0 7.91870594 22.799865723 22.799865723
519 3 0.0 7.91870594 3.543134212 22.799865723
520 3 0.0 18.424295425 22.799865723 3.543133497
521 3 0.0 18.424295425 9.62836647 16.714633942
522 3 0.0 7.91870594 16.714633942 9.628365517
523 3 0.0 7.91870594 16.714633942 16.714633942
524 3 0.0 18.424295425 9.62836647 9.628365517
525 3 0.0 18.424295425 16.714633942 9.628365517
526 3 0.0 7.91870594 9.62836647 16.714633942
527 3 0.0 7.91870594 9.62836647 9.628365517
528 3 0.0 18.424295425 16.714633942 16.714633942
529 4 0.0 -1.6047621851 13.3600652896 9.1269640781
530 4 0.0 -1.6047575561 14.159059038 10.5884738723
531 4 0.0 -0.2447612593 14.1814635343 9.6270683612
532 4 0.0 27.5165630887 12.3851935325 18.4129744585
533 4 0.0 27.5165677177 12.7717540241 16.7927976548
534 4 0.0 28.8765640145 12.1107684838 17.4912964978
535 4 0.0 10.577230831 -3.9866244575 15.2394432929
536 4 0.0 10.57723546 -2.4048765724 14.7174514189
537 4 0.0 11.9372317568 -3.3464375893 14.5218360576
538 4 0.0 15.5335935521 26.1496586123 25.5781251557
539 4 0.0 15.5335981811 25.6017119231 24.0051800472
540 4 0.0 16.8935944779 25.4216151286 24.9498321857
541 4 0.0 12.1260332028 14.9231575704 -2.3999420695
542 4 0.0 12.1260378317 16.5222005662 -1.9336123725
543 4 0.0 13.4860341286 15.8572960409 -2.6283817518
544 4 0.0 11.1764514993 8.5153212327 -0.268770303
545 4 0.0 11.1764561283 9.5308519356 -1.5890351553
546 4 0.0 12.5364524251 8.6419581147 -1.2220606421
547 4 0.0 10.399348641 -3.0002528629 9.3793352125
548 4 0.0 10.39935327 -1.6553444214 10.361996483
549 4 0.0 11.7593495668 -2.0441293375 9.4824234007
550 4 0.0 10.7380259627 -1.5881541987 12.3165605463
551 4 0.0 10.7380305917 0.0579242072 12.0619475655
552 4 0.0 12.0980268885 -0.8386164161 11.7140719714
553 4 0.0 10.9721354492 -1.4304154961 17.4894443024
554 4 0.0 10.9721400782 -0.9588723353 15.8919309422
555 4 0.0 12.332136375 -1.6558068814 16.5545656504
556 4 0.0 13.2181057772 15.0700292558 11.9553375372
557 4 0.0 13.2181104062 15.3228251775 13.6016959765
558 4 0.0 14.578106703 15.6716901409 12.7055398765
559 4 0.0 13.4534809346 15.3144638977 14.6422135784
560 4 0.0 13.4534855636 16.6738957067 15.6046828221
561 4 0.0 14.8134818604 16.2720201586 14.7310132266
562 4 0.0 14.7005066802 26.1861779483 11.0726456995
563 4 0.0 14.7005113092 25.3334400617 12.5034636423
564 4 0.0 16.060507606 26.1728513321 12.034218251
565 4 0.0 14.9712245291 27.2378778555 15.3227761373
566 4 0.0 14.9712291581 27.3532082341 13.6611200981
567 4 0.0 16.3312254549 26.8158638721 14.4586560251
568 4 0.0 14.3689856352 16.5717248049 28.0820196454
569 4 0.0 14.3689902642 14.9201618174 27.8658216177
570 4 0.0 15.728986561 15.6835332108 28.4506862464
571 4 0.0 13.2919071256 9.1323668458 26.9005584701
572 4 0.0 13.2919117546 7.6939184858 27.7403609495
573 4 0.0 14.6519080514 8.6555737406 27.73570379
574 4 0.0 -0.8706776438 14.453424217 25.9133702906
575 4 0.0 -0.8706730148 14.774748653 24.2790042069
576 4 0.0 0.489323282 14.1422850824 25.0034297379
577 4 0.0 1.3472534066 15.0276355882 26.8617485807
578 4 0.0 1.3472580355 13.4863714555 26.2301579207
579 4 0.0 2.7072543324 14.0746797533 26.9908785428
580 4 0.0 27.0418531806 11.3311426522 1.0114307418
581 4 0.0 27.0418578096 12.1601177781 2.4561459833
582 4 0.0 28.4018541064 12.1626833956 1.494482874
583 4 0.0 24.0439558192 11.3136723219 -1.0607236744
584 4 0.0 24.0439604482 12.9029551926 -0.5621438457
585 4 0.0 25.403956745 12.2522405528 -1.2702208018
586 4 0.0 -1.3505102949 13.4252649906 0.8156482437
587 4 0.0 -1.3505056659 12.9120314661 2.4002596276
588 4 0.0 0.0094906309 13.6260867354 1.7561108943
589 4 0.0 1.0943708763 13.5514682123 0.4293674015
590 4 0.0 1.0943755053 14.2234461972 -1.0947216629
591 4 0.0 2.4543718021 13.4474899082 -0.5266597334
592 4 0.0 12.0877885107 12.1978840297 0.0320596872
593 4 0.0 12.0877931397 13.8084075541 -0.3929295664
594 4 0.0 13.4477894365 12.8804609648 -0.6453531102
595 4 0.0 9.967931276 13.4541735407 -0.6961235112
596 4 0.0 9.967935905 12.0470475102 0.1951666902
597 4 0.0 11.3279322018 13.0079048177 0.1557236567
598 4 0.0 12.4779458537 11.9641402239 1.7092886406
599 4 0.0 12.4779504827 13.5288155459 2.2804217473
600 4 0.0 13.8379467795 12.911349036 1.5431717033
601 4 0.0 -2.5778699586 12.9771330736 10.9067360611
602 4 0.0 -2.5778653296 14.1624987329 12.0769113224
603 4 0.0 -1.2178690328 13.9076159618 11.1496372037
604 4 0.0 -2.0262941777 13.1696797406 14.9852516726
605 4 0.0 -2.0262895487 14.8285180556 14.8347281423
606 4 0.0 -0.6662932519 13.9556455271 14.431124293
607 4 0.0 -0.9756064424 14.6397326139 17.6661555068
608 4 0.0 -0.9756018135 14.2119204707 16.0563795414
609 4 0.0 0.3843944834 13.9611241752 16.9847672494
610 4 0.0 0.9357827112 14.0569424952 15.4739671601
611 4 0.0 0.9357873402 14.4849712875 13.8642487867
612 4 0.0 2.295783637 13.8062706641 14.5455475332
613 4 0.0 0.3118196309 13.4275454511 12.297598611
614 4 0.0 0.3118242598 14.7136569902 11.239147385
615 4 0.0 1.6718205567 13.765051733 11.397104924
616 4 0.0 10.3236580053 12.3717323508 13.9004243568
617 4 0.0 10.3236626342 13.6180590742 15.0054454368
618 4 0.0 11.6836589311 13.3138873317 14.0931504904
619 4 0.0 11.5669153787 13.6842173492 12.3169745693