# LAMMPS data file written by Ovito Basic 3.0.0-dev791
416 atoms
2 atom types
0.0 2.840051651 xlo xhi
0.0 14.4814786911 ylo yhi
0.0 115.8518295288 zlo zhi

Atoms  # charge

1 1 0.0 0.0 0.0 57.92591095
2 1 0.0 0.0 0.0 72.40738678
3 1 0.0 0.0 0.0 86.88886261
4 1 0.0 0.0 0.0 101.370346069
5 1 0.0 0.0 2.784899712 58.482891083
6 1 0.0 0.0 2.784899712 72.964370728
7 1 0.0 0.0 2.784899712 87.445846558
8 1 0.0 0.0 2.784899712 101.927322388
9 1 0.0 0.0 2.22791934 61.267787933
10 1 0.0 0.0 2.22791934 75.749267578
11 1 0.0 0.0 2.22791934 90.230743408
12 1 0.0 0.0 2.22791934 104.712219238
13 1 0.0 0.0 1.670940042 64.052688599
14 1 0.0 0.0 1.670940042 78.534164429
15 1 0.0 0.0 1.670940042 93.015640259
16 1 0.0 0.0 1.670940042 107.497123718
17 1 0.0 0.0 1.113960624 66.837585449
18 1 0.0 0.0 1.113960624 81.319068909
19 1 0.0 0.0 1.113960624 95.800544739
20 1 0.0 0.0 1.113960624 110.282020569
21 1 0.0 0.0 0.556980312 69.622489929
22 1 0.0 0.0 0.556980312 84.103965759
23 1 0.0 0.0 0.556980312 98.585449219
24 1 0.0 0.0 0.556980312 113.066925049
25 1 0.0 0.0 13.924497604 60.710803986
26 1 0.0 0.0 13.924497604 75.19228363
27 1 0.0 0.0 13.924497604 89.67375946
28 1 0.0 0.0 13.924497604 104.15524292
29 1 0.0 0.0 13.367517471 63.495708466
30 1 0.0 0.0 13.367517471 77.97718811
31 1 0.0 0.0 13.367517471 92.45866394
32 1 0.0 0.0 13.367517471 106.940139771
33 1 0.0 0.0 12.810538292 66.280601501
34 1 0.0 0.0 12.810538292 80.762084961
35 1 0.0 0.0 12.810538292 95.24356842
36 1 0.0 0.0 12.810538292 109.72504425
37 1 0.0 0.0 12.253558159 69.065505981
38 1 0.0 0.0 12.253558159 83.54699707
39 1 0.0 0.0 12.253558159 98.028465271
40 1 0.0 0.0 12.253558159 112.509941101
41 1 0.0 0.0 11.696578026 71.850402832
42 1 0.0 0.0 11.696578026 86.331878662
43 1 0.0 0.0 11.696578026 100.813362122
44 1 0.0 0.0 11.696578026 115.294837952
45 1 0.0 0.0 11.139597893 60.153827667
46 1 0.0 0.0 11.139597893 74.635307312
47 1 0.0 0.0 11.139597893 89.116783142
48 1 0.0 0.0 11.139597893 103.598258972
49 1 0.0 0.0 10.58261776 62.938724518
50 1 0.0 0.0 10.58261776 77.420204163
51 1 0.0 0.0 10.58261776 91.901679993
52 1 0.0 0.0 10.58261776 106.383163452
53 1 0.0 0.0 10.02563858 65.723632813
54 1 0.0 0.0 10.02563858 80.205108643
55 1 0.0 0.0 10.02563858 94.686584473
56 1 0.0 0.0 10.02563858 109.168067932
57 1 0.0 0.0 9.468658447 68.508522034
58 1 0.0 0.0 9.468658447 82.990005493
59 1 0.0 0.0 9.468658447 97.471481323
60 1 0.0 0.0 9.468658447 111.952972412
61 1 0.0 0.0 8.911677361 71.293418884
62 1 0.0 0.0 8.911677361 85.774902344
63 1 0.0 0.0 8.911677361 100.256378174
64 1 0.0 0.0 8.911677361 114.737854004
65 1 0.0 0.0 8.354698181 59.596847534
66 1 0.0 0.0 8.354698181 74.078323364
67 1 0.0 0.0 8.354698181 88.559806824
68 1 0.0 0.0 8.354698181 103.041282654
69 1 0.0 0.0 7.797719002 62.381752014
70 1 0.0 0.0 7.797719002 76.863227844
71 1 0.0 0.0 7.797719002 91.344703674
72 1 0.0 0.0 7.797719002 105.826187134
73 1 0.0 0.0 7.240738869 65.166648865
74 1 0.0 0.0 7.240738869 79.648124695
75 1 0.0 0.0 7.240738869 94.129608154
76 1 0.0 0.0 7.240738869 108.611083984
77 1 0.0 0.0 6.683758736 67.951545715
78 1 0.0 0.0 6.683758736 82.433021545
79 1 0.0 0.0 6.683758736 96.914497375
80 1 0.0 0.0 6.683758736 111.395980835
81 1 0.0 0.0 6.126779079 70.736457825
82 1 0.0 0.0 6.126779079 85.217926025
83 1 0.0 0.0 6.126779079 99.699409485
84 1 0.0 0.0 6.126779079 114.180885315
85 1 0.0 0.0 5.56979847 59.039863586
86 1 0.0 0.0 5.56979847 73.521347046
87 1 0.0 0.0 5.56979847 88.002830505
88 1 0.0 0.0 5.56979847 102.484306335
89 1 0.0 0.0 5.01281929 61.824768066
90 1 0.0 0.0 5.01281929 76.306243896
91 1 0.0 0.0 5.01281929 90.787727356
92 1 0.0 0.0 5.01281929 105.269203186
93 1 0.0 0.0 4.45583868 64.609664917
94 1 0.0 0.0 4.45583868 79.091140747
95 1 0.0 0.0 4.45583868 93.572624207
96 1 0.0 0.0 4.45583868 108.054100037
97 1 0.0 0.0 3.898859501 67.394569397
98 1 0.0 0.0 3.898859501 81.876045227
99 1 0.0 0.0 3.898859501 96.357528687
100 1 0.0 0.0 3.898859501 110.839004517
101 1 0.0 0.0 3.341879368 70.179466248
102 1 0.0 0.0 3.341879368 84.660942078
103 1 0.0 0.0 3.341879368 99.142433167
104 1 0.0 0.0 3.341879368 113.623901367
105 1 0.0 1.420025706 12.810538292 59.039863586
106 1 0.0 1.420025706 12.810538292 73.521347046
107 1 0.0 1.420025706 12.810538292 88.002830505
108 1 0.0 1.420025706 12.810538292 102.484306335
109 1 0.0 1.420025706 1.113960624 59.596847534
110 1 0.0 1.420025706 1.113960624 74.078323364
111 1 0.0 1.420025706 1.113960624 88.559806824
112 1 0.0 1.420025706 1.113960624 103.041282654
113 1 0.0 1.420025706 0.556979418 62.381752014
114 1 0.0 1.420025706 0.556979418 76.863227844
115 1 0.0 1.420025706 0.556979418 91.344703674
116 1 0.0 1.420025706 0.556979418 105.826187134
117 1 0.0 1.420025706 0.0 65.166648865
118 1 0.0 1.420025706 0.0 79.648124695
119 1 0.0 1.420025706 0.0 94.129608154
120 1 0.0 1.420025706 0.0 108.611083984
121 1 0.0 1.420025706 13.924497604 67.951545715
122 1 0.0 1.420025706 13.924497604 82.433021545
123 1 0.0 1.420025706 13.924497604 96.914497375
124 1 0.0 1.420025706 13.924497604 111.395980835
125 1 0.0 1.420025706 13.367518425 70.736457825
126 1 0.0 1.420025706 13.367518425 85.217926025
127 1 0.0 1.420025706 13.367518425 99.699409485
128 1 0.0 1.420025706 13.367518425 114.180885315
129 1 0.0 1.420025706 12.253558159 61.824768066
130 1 0.0 1.420025706 12.253558159 76.306243896
131 1 0.0 1.420025706 12.253558159 90.787727356
132 1 0.0 1.420025706 12.253558159 105.269203186
133 1 0.0 1.420025706 11.696578026 64.609664917
134 1 0.0 1.420025706 11.696578026 79.091140747
135 1 0.0 1.420025706 11.696578026 93.572624207
136 1 0.0 1.420025706 11.696578026 108.054100037
137 1 0.0 1.420025706 11.139597893 67.394569397
138 1 0.0 1.420025706 11.139597893 81.876045227
139 1 0.0 1.420025706 11.139597893 96.357528687
140 1 0.0 1.420025706 11.139597893 110.839004517
141 1 0.0 1.420025706 10.58261776 70.179466248
142 1 0.0 1.420025706 10.58261776 84.660942078
143 1 0.0 1.420025706 10.58261776 99.142433167
144 1 0.0 1.420025706 10.58261776 113.623901367
145 1 0.0 1.420025706 10.02563858 58.482891083
146 1 0.0 1.420025706 10.02563858 72.964370728
147 1 0.0 1.420025706 10.02563858 87.445846558
148 1 0.0 1.420025706 10.02563858 101.927322388
149 1 0.0 1.420025706 9.468658447 61.267787933
150 1 0.0 1.420025706 9.468658447 75.749267578
151 1 0.0 1.420025706 9.468658447 90.230743408
152 1 0.0 1.420025706 9.468658447 104.712219238
153 1 0.0 1.420025706 8.911677361 64.052688599
154 1 0.0 1.420025706 8.911677361 78.534164429
155 1 0.0 1.420025706 8.911677361 93.015640259
156 1 0.0 1.420025706 8.911677361 107.497123718
157 1 0.0 1.420025706 8.354698181 66.837585449
158 1 0.0 1.420025706 8.354698181 81.319068909
159 1 0.0 1.420025706 8.354698181 95.800544739
160 1 0.0 1.420025706 8.354698181 110.282020569
161 1 0.0 1.420025706 7.797719002 69.622489929
162 1 0.0 1.420025706 7.797719002 84.103965759
163 1 0.0 1.420025706 7.797719002 98.585449219
164 1 0.0 1.420025706 7.797719002 113.066925049
165 1 0.0 1.420025706 7.240738869 57.92591095
166 1 0.0 1.420025706 7.240738869 72.40738678
167 1 0.0 1.420025706 7.240738869 86.88886261
168 1 0.0 1.420025706 7.240738869 101.370346069
169 1 0.0 1.420025706 6.683758736 60.710803986
170 1 0.0 1.420025706 6.683758736 75.19228363
171 1 0.0 1.420025706 6.683758736 89.67375946
172 1 0.0 1.420025706 6.683758736 104.15524292
173 1 0.0 1.420025706 6.126779079 63.495708466
174 1 0.0 1.420025706 6.126779079 77.97718811
175 1 0.0 1.420025706 6.126779079 92.45866394
176 1 0.0 1.420025706 6.126779079 106.940139771
177 1 0.0 1.420025706 5.56979847 66.280601501
178 1 0.0 1.420025706 5.56979847 80.762084961
179 1 0.0 1.420025706 5.56979847 95.24356842
180 1 0.0 1.420025706 5.56979847 109.72504425
181 1 0.0 1.420025706 5.01281929 69.065505981
182 1 0.0 1.420025706 5.01281929 83.54699707
183 1 0.0 1.420025706 5.01281929 98.028465271
184 1 0.0 1.420025706 5.01281929 112.509941101
185 1 0.0 1.420025706 4.45583868 71.850402832
186 1 0.0 1.420025706 4.45583868 86.331878662
187 1 0.0 1.420025706 4.45583868 100.813362122
188 1 0.0 1.420025706 4.45583868 115.294837952
189 1 0.0 1.420025706 3.898858547 60.153827667
190 1 0.0 1.420025706 3.898858547 74.635307312
191 1 0.0 1.420025706 3.898858547 89.116783142
192 1 0.0 1.420025706 3.898858547 103.598258972
193 1 0.0 1.420025706 3.341879368 62.938724518
194 1 0.0 1.420025706 3.341879368 77.420204163
195 1 0.0 1.420025706 3.341879368 91.901679993
196 1 0.0 1.420025706 3.341879368 106.383163452
197 1 0.0 1.420025706 2.784898996 65.723632813
198 1 0.0 1.420025706 2.784898996 80.205108643
199 1 0.0 1.420025706 2.784898996 94.686584473
200 1 0.0 1.420025706 2.784898996 109.168067932
201 1 0.0 1.420025706 2.22791934 68.508522034
202 1 0.0 1.420025706 2.22791934 82.990005493
203 1 0.0 1.420025706 2.22791934 97.471481323
204 1 0.0 1.420025706 2.22791934 111.952972412
205 1 0.0 1.420025706 1.670939207 71.293418884
206 1 0.0 1.420025706 1.670939207 85.774902344
207 1 0.0 1.420025706 1.670939207 100.256378174
208 1 0.0 1.420025706 1.670939207 114.737854004
209 2 0.0 0.0 0.0 0.0
210 2 0.0 0.0 0.0 14.481477737
211 2 0.0 0.0 0.0 28.962955475
212 2 0.0 0.0 0.0 43.444431305
213 2 0.0 0.0 11.696578026 0.556979895
214 2 0.0 0.0 11.696578026 15.038456917
215 2 0.0 0.0 11.696578026 29.519931793
216 2 0.0 0.0 11.696578026 44.001411438
217 2 0.0 0.0 12.253558159 3.341879368
218 2 0.0 0.0 12.253558159 17.823354721
219 2 0.0 0.0 12.253558159 32.304832458
220 2 0.0 0.0 12.253558159 46.786312103
221 2 0.0 0.0 12.810537338 6.126779079
222 2 0.0 0.0 12.810537338 20.608255386
223 2 0.0 0.0 12.810537338 35.089733124
224 2 0.0 0.0 12.810537338 49.571216583
225 2 0.0 0.0 13.367517471 8.911678314
226 2 0.0 0.0 13.367517471 23.393156052
227 2 0.0 0.0 13.367517471 37.874633789
228 2 0.0 0.0 13.367517471 52.356109619
229 2 0.0 0.0 13.924497604 11.696578026
230 2 0.0 0.0 13.924497604 26.17805481
231 2 0.0 0.0 13.924497604 40.659534454
232 2 0.0 0.0 13.924497604 55.141010284
233 2 0.0 0.0 0.556979895 2.784899473
234 2 0.0 0.0 0.556979895 17.266376495
235 2 0.0 0.0 0.556979895 31.747854233
236 2 0.0 0.0 0.556979895 46.22933197
237 2 0.0 0.0 1.113959789 5.569798946
238 2 0.0 0.0 1.113959789 20.051277161
239 2 0.0 0.0 1.113959789 34.532752991
240 2 0.0 0.0 1.113959789 49.014232635
241 2 0.0 0.0 1.670939684 8.354698181
242 2 0.0 0.0 1.670939684 22.836175919
243 2 0.0 0.0 1.670939684 37.317653656
244 2 0.0 0.0 1.670939684 51.799133301
245 2 0.0 0.0 2.227919579 11.139597893
246 2 0.0 0.0 2.227919579 25.621076584
247 2 0.0 0.0 2.227919579 40.102554321
248 2 0.0 0.0 2.227919579 54.584033966
249 2 0.0 0.0 2.784899473 13.924497604
250 2 0.0 0.0 2.784899473 28.405975342
251 2 0.0 0.0 2.784899473 42.887451172
252 2 0.0 0.0 2.784899473 57.368927002
253 2 0.0 0.0 3.341879368 2.227919579
254 2 0.0 0.0 3.341879368 16.709396362
255 2 0.0 0.0 3.341879368 31.190876007
256 2 0.0 0.0 3.341879368 45.672351837
257 2 0.0 0.0 3.898859501 5.01281929
258 2 0.0 0.0 3.898859501 19.494297028
259 2 0.0 0.0 3.898859501 33.975772858
260 2 0.0 0.0 3.898859501 48.457248688
261 2 0.0 0.0 4.455839157 7.797719002
262 2 0.0 0.0 4.455839157 22.279195786
263 2 0.0 0.0 4.455839157 36.760673523
264 2 0.0 0.0 4.455839157 51.242153168
265 2 0.0 0.0 5.01281929 10.58261776
266 2 0.0 0.0 5.01281929 25.064094543
267 2 0.0 0.0 5.01281929 39.545570374
268 2 0.0 0.0 5.01281929 54.027050018
269 2 0.0 0.0 5.569798946 13.367517471
270 2 0.0 0.0 5.569798946 27.848995209
271 2 0.0 0.0 5.569798946 42.330471039
272 2 0.0 0.0 5.569798946 56.811950684
273 2 0.0 0.0 6.126779079 1.670939684
274 2 0.0 0.0 6.126779079 16.152416229
275 2 0.0 0.0 6.126779079 30.633893967
276 2 0.0 0.0 6.126779079 45.115371704
277 2 0.0 0.0 6.683758736 4.455839157
278 2 0.0 0.0 6.683758736 18.937316895
279 2 0.0 0.0 6.683758736 33.418792725
280 2 0.0 0.0 6.683758736 47.900272369
281 2 0.0 0.0 7.240738869 7.240738869
282 2 0.0 0.0 7.240738869 21.722215652
283 2 0.0 0.0 7.240738869 36.20369339
284 2 0.0 0.0 7.240738869 50.685173035
285 2 0.0 0.0 7.797719002 10.02563858
286 2 0.0 0.0 7.797719002 24.507116318
287 2 0.0 0.0 7.797719002 38.988594055
288 2 0.0 0.0 7.797719002 53.470069885
289 2 0.0 0.0 8.354698181 12.810537338
290 2 0.0 0.0 8.354698181 27.292016983
291 2 0.0 0.0 8.354698181 41.773498535
292 2 0.0 0.0 8.354698181 56.254970551
293 2 0.0 0.0 8.911678314 1.113959789
294 2 0.0 0.0 8.911678314 15.595438004
295 2 0.0 0.0 8.911678314 30.076913834
296 2 0.0 0.0 8.911678314 44.558391571
297 2 0.0 0.0 9.468658447 3.898859501
298 2 0.0 0.0 9.468658447 18.380336761
299 2 0.0 0.0 9.468658447 32.861816406
300 2 0.0 0.0 9.468658447 47.343292236
301 2 0.0 0.0 10.02563858 6.683758736
302 2 0.0 0.0 10.02563858 21.165235519
303 2 0.0 0.0 10.02563858 35.646709442
304 2 0.0 0.0 10.02563858 50.128189087
305 2 0.0 0.0 10.58261776 9.468658447
306 2 0.0 0.0 10.58261776 23.950136185
307 2 0.0 0.0 10.58261776 38.431613922
308 2 0.0 0.0 10.58261776 52.913093567
309 2 0.0 0.0 11.139597893 12.253558159
310 2 0.0 0.0 11.139597893 26.735034943
311 2 0.0 0.0 11.139597893 41.216510773
312 2 0.0 0.0 11.139597893 55.697990417
313 2 0.0 1.420025706 1.670939684 1.113959789
314 2 0.0 1.420025706 1.670939684 15.595438004
315 2 0.0 1.420025706 1.670939684 30.076913834
316 2 0.0 1.420025706 1.670939684 44.558391571
317 2 0.0 1.420025706 13.367517471 1.670939803
318 2 0.0 1.420025706 13.367517471 16.152416229
319 2 0.0 1.420025706 13.367517471 30.633893967
320 2 0.0 1.420025706 13.367517471 45.115371704
321 2 0.0 1.420025706 13.924498558 4.455839157
322 2 0.0 1.420025706 13.924498558 18.937316895
323 2 0.0 1.420025706 13.924498558 33.418792725
324 2 0.0 1.420025706 13.924498558 47.900272369
325 2 0.0 1.420025706 0.0 7.240738869
326 2 0.0 1.420025706 0.0 21.722215652
327 2 0.0 1.420025706 0.0 36.20369339
328 2 0.0 1.420025706 0.0 50.685173035
329 2 0.0 1.420025706 0.556980312 10.02563858
330 2 0.0 1.420025706 0.556980312 24.507116318
331 2 0.0 1.420025706 0.556980312 38.988594055
332 2 0.0 1.420025706 0.556980312 53.470069885
333 2 0.0 1.420025706 1.113958836 12.810537338
334 2 0.0 1.420025706 1.113958836 27.292016983
335 2 0.0 1.420025706 1.113958836 41.773498535
336 2 0.0 1.420025706 1.113958836 56.254970551
337 2 0.0 1.420025706 2.227919579 3.898859501
338 2 0.0 1.420025706 2.227919579 18.380336761
339 2 0.0 1.420025706 2.227919579 32.861816406
340 2 0.0 1.420025706 2.227919579 47.343292236
341 2 0.0 1.420025706 2.784899473 6.683758736
342 2 0.0 1.420025706 2.784899473 21.165235519
343 2 0.0 1.420025706 2.784899473 35.646709442
344 2 0.0 1.420025706 2.784899473 50.128189087
345 2 0.0 1.420025706 3.341879368 9.468658447
346 2 0.0 1.420025706 3.341879368 23.950136185
347 2 0.0 1.420025706 3.341879368 38.431613922
348 2 0.0 1.420025706 3.341879368 52.913093567
349 2 0.0 1.420025706 3.898859501 12.253558159
350 2 0.0 1.420025706 3.898859501 26.735034943
351 2 0.0 1.420025706 3.898859501 41.216510773
352 2 0.0 1.420025706 3.898859501 55.697990417
353 2 0.0 1.420025706 4.455839157 0.556980312
354 2 0.0 1.420025706 4.455839157 15.038456917
355 2 0.0 1.420025706 4.455839157 29.519935608
356 2 0.0 1.420025706 4.455839157 44.001415253
357 2 0.0 1.420025706 5.01281929 3.341879606
358 2 0.0 1.420025706 5.01281929 17.823356628
359 2 0.0 1.420025706 5.01281929 32.304832458
360 2 0.0 1.420025706 5.01281929 46.786312103
361 2 0.0 1.420025706 5.569798946 6.126779079
362 2 0.0 1.420025706 5.569798946 20.608255386
363 2 0.0 1.420025706 5.569798946 35.089733124
364 2 0.0 1.420025706 5.569798946 49.571216583
365 2 0.0 1.420025706 6.126779079 8.911678314
366 2 0.0 1.420025706 6.126779079 23.393156052
367 2 0.0 1.420025706 6.126779079 37.874633789
368 2 0.0 1.420025706 6.126779079 52.356109619
369 2 0.0 1.420025706 6.683758736 11.696578026
370 2 0.0 1.420025706 6.683758736 26.17805481
371 2 0.0 1.420025706 6.683758736 40.659534454
372 2 0.0 1.420025706 6.683758736 55.141010284
373 2 0.0 1.420025706 7.240738869 0.0
374 2 0.0 1.420025706 7.240738869 14.481477737
375 2 0.0 1.420025706 7.240738869 28.962955475
376 2 0.0 1.420025706 7.240738869 43.444431305
377 2 0.0 1.420025706 7.797719002 2.784899473
378 2 0.0 1.420025706 7.797719002 17.266376495
379 2 0.0 1.420025706 7.797719002 31.747854233
380 2 0.0 1.420025706 7.797719002 46.22933197
381 2 0.0 1.420025706 8.354698181 5.569798946
382 2 0.0 1.420025706 8.354698181 20.051277161
383 2 0.0 1.420025706 8.354698181 34.532752991
384 2 0.0 1.420025706 8.354698181 49.014232635
385 2 0.0 1.420025706 8.911678314 8.354698181
386 2 0.0 1.420025706 8.911678314 22.836175919
387 2 0.0 1.420025706 8.911678314 37.317653656
388 2 0.0 1.420025706 8.911678314 51.799133301
389 2 0.0 1.420025706 9.468658447 11.139597893
390 2 0.0 1.420025706 9.468658447 25.621076584
391 2 0.0 1.420025706 9.468658447 40.102554321
392 2 0.0 1.420025706 9.468658447 54.584033966
393 2 0.0 1.420025706 10.02563858 13.924497604
394 2 0.0 1.420025706 10.02563858 28.405975342
395 2 0.0 1.420025706 10.02563858 42.887451172
396 2 0.0 1.420025706 10.02563858 57.368927002
397 2 0.0 1.420025706 10.582618713 2.227919579
398 2 0.0 1.420025706 10.582618713 16.709396362
399 2 0.0 1.420025706 10.582618713 31.190876007
400 2 0.0 1.420025706 10.582618713 45.672351837
401 2 0.0 1.420025706 11.139597893 5.01281929
402 2 0.0 1.420025706 11.139597893 19.494297028
403 2 0.0 1.420025706 11.139597893 33.975772858
404 2 0.0 1.420025706 11.139597893 48.457248688
405 2 0.0 1.420025706 11.696578979 7.797719002
406 2 0.0 1.420025706 11.696578979 22.279195786
407 2 0.0 1.420025706 11.696578979 36.760673523
408 2 0.0 1.420025706 11.696578979 51.242153168
409 2 0.0 1.420025706 12.253558159 10.58261776
410 2 0.0 1.420025706 12.253558159 25.064094543
411 2 0.0 1.420025706 12.253558159 39.545570374
412 2 0.0 1.420025706 12.253558159 54.027050018
413 2 0.0 1.420025706 12.810538292 13.367517471
414 2 0.0 1.420025706 12.810538292 27.848995209
415 2 0.0 1.420025706 12.810538292 42.330471039
416 2 0.0 1.420025706 12.810538292 56.811950684
