# LAMMPS data file written by Ovito Basic 3.0.0-dev791
592 atoms
2 atom types
0.0 2.840051651 xlo xhi
0.0 17.2753601074 ylo yhi
0.0 138.2028808594 zlo zhi

Atoms  # charge

1 1 0.0 0.0 0.0 69.1014328
2 1 0.0 0.0 0.0 86.376792908
3 1 0.0 0.0 0.0 103.652153015
4 1 0.0 0.0 0.0 120.927513123
5 1 0.0 0.0 2.80140996 69.568336487
6 1 0.0 0.0 2.80140996 86.843696594
7 1 0.0 0.0 2.80140996 104.119056702
8 1 0.0 0.0 2.80140996 121.394416809
9 1 0.0 0.0 2.334507465 72.369743347
10 1 0.0 0.0 2.334507465 89.645103455
11 1 0.0 0.0 2.334507465 106.920463562
12 1 0.0 0.0 2.334507465 124.195823669
13 1 0.0 0.0 1.867606282 75.171150208
14 1 0.0 0.0 1.867606282 92.446510315
15 1 0.0 0.0 1.867606282 109.721870422
16 1 0.0 0.0 1.867606282 126.99723053
17 1 0.0 0.0 1.40070498 77.972564697
18 1 0.0 0.0 1.40070498 95.247924805
19 1 0.0 0.0 1.40070498 112.523284912
20 1 0.0 0.0 1.40070498 129.798629761
21 1 0.0 0.0 0.933803678 80.773979187
22 1 0.0 0.0 0.933803678 98.049331665
23 1 0.0 0.0 0.933803678 115.324691772
24 1 0.0 0.0 0.933803678 132.600036621
25 1 0.0 0.0 0.466901302 83.575378418
26 1 0.0 0.0 0.466901302 100.850738525
27 1 0.0 0.0 0.466901302 118.126098633
28 1 0.0 0.0 0.466901302 135.40145874
29 1 0.0 0.0 16.808458328 71.90284729
30 1 0.0 0.0 16.808458328 89.178207397
31 1 0.0 0.0 16.808458328 106.453559875
32 1 0.0 0.0 16.808458328 123.728919983
33 1 0.0 0.0 16.341554642 74.704246521
34 1 0.0 0.0 16.341554642 91.979614258
35 1 0.0 0.0 16.341554642 109.254974365
36 1 0.0 0.0 16.341554642 126.530334473
37 1 0.0 0.0 15.874653816 77.505661011
38 1 0.0 0.0 15.874653816 94.781021118
39 1 0.0 0.0 15.874653816 112.056381226
40 1 0.0 0.0 15.874653816 129.331756592
41 1 0.0 0.0 15.407752991 80.3070755
42 1 0.0 0.0 15.407752991 97.582435608
43 1 0.0 0.0 15.407752991 114.857795715
44 1 0.0 0.0 15.407752991 132.133148193
45 1 0.0 0.0 14.940851212 83.108482361
46 1 0.0 0.0 14.940851212 100.383842468
47 1 0.0 0.0 14.940851212 117.659202576
48 1 0.0 0.0 14.940851212 134.934570313
49 1 0.0 0.0 14.473948479 85.909889221
50 1 0.0 0.0 14.473948479 103.185249329
51 1 0.0 0.0 14.473948479 120.460609436
52 1 0.0 0.0 14.473948479 137.735961914
53 1 0.0 0.0 14.007047653 71.435943604
54 1 0.0 0.0 14.007047653 88.711303711
55 1 0.0 0.0 14.007047653 105.986663818
56 1 0.0 0.0 14.007047653 123.262023926
57 1 0.0 0.0 13.540145874 74.237350464
58 1 0.0 0.0 13.540145874 91.512710571
59 1 0.0 0.0 13.540145874 108.788070679
60 1 0.0 0.0 13.540145874 126.063430786
61 1 0.0 0.0 13.073245049 77.038757324
62 1 0.0 0.0 13.073245049 94.314117432
63 1 0.0 0.0 13.073245049 111.589477539
64 1 0.0 0.0 13.073245049 128.864852905
65 1 0.0 0.0 12.606343269 79.840171814
66 1 0.0 0.0 12.606343269 97.115531921
67 1 0.0 0.0 12.606343269 114.390892029
68 1 0.0 0.0 12.606343269 131.666244507
69 1 0.0 0.0 12.13944149 82.641578674
70 1 0.0 0.0 12.13944149 99.916938782
71 1 0.0 0.0 12.13944149 117.192298889
72 1 0.0 0.0 12.13944149 134.467666626
73 1 0.0 0.0 11.672539711 85.442985535
74 1 0.0 0.0 11.672539711 102.718345642
75 1 0.0 0.0 11.672539711 119.99370575
76 1 0.0 0.0 11.672539711 137.269088745
77 1 0.0 0.0 11.205637932 70.969039917
78 1 0.0 0.0 11.205637932 88.244400024
79 1 0.0 0.0 11.205637932 105.519760132
80 1 0.0 0.0 11.205637932 122.795120239
81 1 0.0 0.0 10.738736153 73.770446777
82 1 0.0 0.0 10.738736153 91.045806885
83 1 0.0 0.0 10.738736153 108.321166992
84 1 0.0 0.0 10.738736153 125.5965271
85 1 0.0 0.0 10.271834373 76.571861267
86 1 0.0 0.0 10.271834373 93.847213745
87 1 0.0 0.0 10.271834373 111.122573853
88 1 0.0 0.0 10.271834373 128.397949219
89 1 0.0 0.0 9.804933548 79.373268127
90 1 0.0 0.0 9.804933548 96.648628235
91 1 0.0 0.0 9.804933548 113.923988342
92 1 0.0 0.0 9.804933548 131.19934082
93 1 0.0 0.0 9.338031769 82.174674988
94 1 0.0 0.0 9.338031769 99.450035095
95 1 0.0 0.0 9.338031769 116.725395203
96 1 0.0 0.0 9.338031769 134.000762939
97 1 0.0 0.0 8.87112999 84.976089478
98 1 0.0 0.0 8.87112999 102.251441956
99 1 0.0 0.0 8.87112999 119.526802063
100 1 0.0 0.0 8.87112999 136.802185059
101 1 0.0 0.0 8.404229164 70.50213623
102 1 0.0 0.0 8.404229164 87.777496338
103 1 0.0 0.0 8.404229164 105.052864075
104 1 0.0 0.0 8.404229164 122.328224182
105 1 0.0 0.0 7.937327385 73.303543091
106 1 0.0 0.0 7.937327385 90.578903198
107 1 0.0 0.0 7.937327385 107.854263306
108 1 0.0 0.0 7.937327385 125.129623413
109 1 0.0 0.0 7.470425129 76.104957581
110 1 0.0 0.0 7.470425129 93.380317688
111 1 0.0 0.0 7.470425129 110.655677795
112 1 0.0 0.0 7.470425129 127.931037903
113 1 0.0 0.0 7.003523827 78.90637207
114 1 0.0 0.0 7.003523827 96.181732178
115 1 0.0 0.0 7.003523827 113.457092285
116 1 0.0 0.0 7.003523827 130.732437134
117 1 0.0 0.0 6.536622524 81.707771301
118 1 0.0 0.0 6.536622524 98.983131409
119 1 0.0 0.0 6.536622524 116.258491516
120 1 0.0 0.0 6.536622524 133.533859253
121 1 0.0 0.0 6.069721222 84.509185791
122 1 0.0 0.0 6.069721222 101.784545898
123 1 0.0 0.0 6.069721222 119.059906006
124 1 0.0 0.0 6.069721222 136.335281372
125 1 0.0 0.0 5.602818966 70.035240173
126 1 0.0 0.0 5.602818966 87.310600281
127 1 0.0 0.0 5.602818966 104.585960388
128 1 0.0 0.0 5.602818966 121.861320496
129 1 0.0 0.0 5.135917187 72.836639404
130 1 0.0 0.0 5.135917187 90.111999512
131 1 0.0 0.0 5.135917187 107.387359619
132 1 0.0 0.0 5.135917187 124.662719727
133 1 0.0 0.0 4.669015884 75.638053894
134 1 0.0 0.0 4.669015884 92.913414001
135 1 0.0 0.0 4.669015884 110.188774109
136 1 0.0 0.0 4.669015884 127.464134216
137 1 0.0 0.0 4.202114105 78.439468384
138 1 0.0 0.0 4.202114105 95.714828491
139 1 0.0 0.0 4.202114105 112.990188599
140 1 0.0 0.0 4.202114105 130.265533447
141 1 0.0 0.0 3.735212564 81.240867615
142 1 0.0 0.0 3.735212564 98.516227722
143 1 0.0 0.0 3.735212564 115.79158783
144 1 0.0 0.0 3.735212564 133.066940308
145 1 0.0 0.0 3.268311262 84.042282104
146 1 0.0 0.0 3.268311262 101.317642212
147 1 0.0 0.0 3.268311262 118.593002319
148 1 0.0 0.0 3.268311262 135.868377686
149 1 0.0 1.420025706 15.641202927 70.268684387
150 1 0.0 1.420025706 15.641202927 87.544052124
151 1 0.0 1.420025706 15.641202927 104.819412231
152 1 0.0 1.420025706 15.641202927 122.094772339
153 1 0.0 1.420025706 1.167253256 70.735588074
154 1 0.0 1.420025706 1.167253256 88.010948181
155 1 0.0 1.420025706 1.167253256 105.286308289
156 1 0.0 1.420025706 1.167253256 122.561668396
157 1 0.0 1.420025706 0.700351954 73.536994934
158 1 0.0 1.420025706 0.700351954 90.812355042
159 1 0.0 1.420025706 0.700351954 108.087715149
160 1 0.0 1.420025706 0.700351954 125.363075256
161 1 0.0 1.420025706 0.233449623 76.338409424
162 1 0.0 1.420025706 0.233449623 93.613761902
163 1 0.0 1.420025706 0.233449623 110.889122009
164 1 0.0 1.420025706 0.233449623 128.164489746
165 1 0.0 1.420025706 17.041908264 79.139816284
166 1 0.0 1.420025706 17.041908264 96.415184021
167 1 0.0 1.420025706 17.041908264 113.690544128
168 1 0.0 1.420025706 17.041908264 130.965896606
169 1 0.0 1.420025706 16.575006485 81.941223145
170 1 0.0 1.420025706 16.575006485 99.216583252
171 1 0.0 1.420025706 16.575006485 116.491943359
172 1 0.0 1.420025706 16.575006485 133.767303467
173 1 0.0 1.420025706 16.108106613 84.742637634
174 1 0.0 1.420025706 16.108106613 102.017997742
175 1 0.0 1.420025706 16.108106613 119.293357849
176 1 0.0 1.420025706 16.108106613 136.568725586
177 1 0.0 1.420025706 15.174302101 73.070091248
178 1 0.0 1.420025706 15.174302101 90.345451355
179 1 0.0 1.420025706 15.174302101 107.620811462
180 1 0.0 1.420025706 15.174302101 124.89617157
181 1 0.0 1.420025706 14.707400322 75.871505737
182 1 0.0 1.420025706 14.707400322 93.146865845
183 1 0.0 1.420025706 14.707400322 110.422225952
184 1 0.0 1.420025706 14.707400322 127.69758606
185 1 0.0 1.420025706 14.240498543 78.672920227
186 1 0.0 1.420025706 14.240498543 95.948280334
187 1 0.0 1.420025706 14.240498543 113.223640442
188 1 0.0 1.420025706 14.240498543 130.49899292
189 1 0.0 1.420025706 13.773596764 81.474319458
190 1 0.0 1.420025706 13.773596764 98.749679565
191 1 0.0 1.420025706 13.773596764 116.025039673
192 1 0.0 1.420025706 13.773596764 133.30039978
193 1 0.0 1.420025706 13.306695938 84.275733948
194 1 0.0 1.420025706 13.306695938 101.551094055
195 1 0.0 1.420025706 13.306695938 118.826454163
196 1 0.0 1.420025706 13.306695938 136.101821899
197 1 0.0 1.420025706 12.839793205 69.80178833
198 1 0.0 1.420025706 12.839793205 87.077148438
199 1 0.0 1.420025706 12.839793205 104.352508545
200 1 0.0 1.420025706 12.839793205 121.627868652
201 1 0.0 1.420025706 12.372891426 72.603187561
202 1 0.0 1.420025706 12.372891426 89.878547668
203 1 0.0 1.420025706 12.372891426 107.153907776
204 1 0.0 1.420025706 12.372891426 124.429267883
205 1 0.0 1.420025706 11.905990601 75.404602051
206 1 0.0 1.420025706 11.905990601 92.679962158
207 1 0.0 1.420025706 11.905990601 109.955322266
208 1 0.0 1.420025706 11.905990601 127.230682373
209 1 0.0 1.420025706 11.439088821 78.206016541
210 1 0.0 1.420025706 11.439088821 95.481376648
211 1 0.0 1.420025706 11.439088821 112.756736755
212 1 0.0 1.420025706 11.439088821 130.032089233
213 1 0.0 1.420025706 10.972187996 81.007423401
214 1 0.0 1.420025706 10.972187996 98.282783508
215 1 0.0 1.420025706 10.972187996 115.558143616
216 1 0.0 1.420025706 10.972187996 132.833496094
217 1 0.0 1.420025706 10.505285263 83.808830261
218 1 0.0 1.420025706 10.505285263 101.084190369
219 1 0.0 1.420025706 10.505285263 118.359550476
220 1 0.0 1.420025706 10.505285263 135.634918213
221 1 0.0 1.420025706 10.038384438 69.334884644
222 1 0.0 1.420025706 10.038384438 86.610244751
223 1 0.0 1.420025706 10.038384438 103.885604858
224 1 0.0 1.420025706 10.038384438 121.160964966
225 1 0.0 1.420025706 9.571481705 72.136299133
226 1 0.0 1.420025706 9.571481705 89.411651611
227 1 0.0 1.420025706 9.571481705 106.687011719
228 1 0.0 1.420025706 9.571481705 123.962371826
229 1 0.0 1.420025706 9.104579926 74.937698364
230 1 0.0 1.420025706 9.104579926 92.213058472
231 1 0.0 1.420025706 9.104579926 109.488418579
232 1 0.0 1.420025706 9.104579926 126.763778687
233 1 0.0 1.420025706 8.6376791 77.739112854
234 1 0.0 1.420025706 8.6376791 95.014472961
235 1 0.0 1.420025706 8.6376791 112.289833069
236 1 0.0 1.420025706 8.6376791 129.565185547
237 1 0.0 1.420025706 8.170777321 80.540527344
238 1 0.0 1.420025706 8.170777321 97.815887451
239 1 0.0 1.420025706 8.170777321 115.091247559
240 1 0.0 1.420025706 8.170777321 132.366592407
241 1 0.0 1.420025706 7.703876972 83.341934204
242 1 0.0 1.420025706 7.703876972 100.617294312
243 1 0.0 1.420025706 7.703876972 117.892654419
244 1 0.0 1.420025706 7.703876972 135.168029785
245 1 0.0 1.420025706 7.236974239 86.143341064
246 1 0.0 1.420025706 7.236974239 103.418701172
247 1 0.0 1.420025706 7.236974239 120.694061279
248 1 0.0 1.420025706 7.236974239 137.969436646
249 1 0.0 1.420025706 6.770072937 71.669395447
250 1 0.0 1.420025706 6.770072937 88.944755554
251 1 0.0 1.420025706 6.770072937 106.220115662
252 1 0.0 1.420025706 6.770072937 123.495475769
253 1 0.0 1.420025706 6.303171635 74.470802307
254 1 0.0 1.420025706 6.303171635 91.746162415
255 1 0.0 1.420025706 6.303171635 109.021522522
256 1 0.0 1.420025706 6.303171635 126.296882629
257 1 0.0 1.420025706 5.836269379 77.272209167
258 1 0.0 1.420025706 5.836269379 94.547569275
259 1 0.0 1.420025706 5.836269379 111.822929382
260 1 0.0 1.420025706 5.836269379 129.09828186
261 1 0.0 1.420025706 5.369368076 80.073623657
262 1 0.0 1.420025706 5.369368076 97.348983765
263 1 0.0 1.420025706 5.369368076 114.624343872
264 1 0.0 1.420025706 5.369368076 131.899688721
265 1 0.0 1.420025706 4.902466774 82.875030518
266 1 0.0 1.420025706 4.902466774 100.150390625
267 1 0.0 1.420025706 4.902466774 117.425750732
268 1 0.0 1.420025706 4.902466774 134.701126099
269 1 0.0 1.420025706 4.435565472 85.676437378
270 1 0.0 1.420025706 4.435565472 102.951797485
271 1 0.0 1.420025706 4.435565472 120.227157593
272 1 0.0 1.420025706 4.435565472 137.502532959
273 1 0.0 1.420025706 3.968663216 71.20249176
274 1 0.0 1.420025706 3.968663216 88.477851868
275 1 0.0 1.420025706 3.968663216 105.753211975
276 1 0.0 1.420025706 3.968663216 123.028572083
277 1 0.0 1.420025706 3.501761913 74.003898621
278 1 0.0 1.420025706 3.501761913 91.279258728
279 1 0.0 1.420025706 3.501761913 108.554618835
280 1 0.0 1.420025706 3.501761913 125.829978943
281 1 0.0 1.420025706 3.034860611 76.805305481
282 1 0.0 1.420025706 3.034860611 94.080665588
283 1 0.0 1.420025706 3.034860611 111.356025696
284 1 0.0 1.420025706 3.034860611 128.631378174
285 1 0.0 1.420025706 2.567958117 79.606719971
286 1 0.0 1.420025706 2.567958117 96.882080078
287 1 0.0 1.420025706 2.567958117 114.157440186
288 1 0.0 1.420025706 2.567958117 131.432785034
289 1 0.0 1.420025706 2.101057053 82.408126831
290 1 0.0 1.420025706 2.101057053 99.683486938
291 1 0.0 1.420025706 2.101057053 116.958847046
292 1 0.0 1.420025706 2.101057053 134.234207153
293 1 0.0 1.420025706 1.634155631 85.209541321
294 1 0.0 1.420025706 1.634155631 102.484893799
295 1 0.0 1.420025706 1.634155631 119.760253906
296 1 0.0 1.420025706 1.634155631 137.035629272
297 2 0.0 0.0 0.0 0.0
298 2 0.0 0.0 0.0 17.2753582
299 2 0.0 0.0 0.0 34.5507164
300 2 0.0 0.0 0.0 51.826076508
301 2 0.0 0.0 14.473948479 0.4669016
302 2 0.0 0.0 14.473948479 17.742259979
303 2 0.0 0.0 14.473948479 35.017620087
304 2 0.0 0.0 14.473948479 52.292980194
305 2 0.0 0.0 14.940851212 3.268311262
306 2 0.0 0.0 14.940851212 20.543668747
307 2 0.0 0.0 14.940851212 37.819026947
308 2 0.0 0.0 14.940851212 55.094387054
309 2 0.0 0.0 15.407752991 6.069720745
310 2 0.0 0.0 15.407752991 23.345079422
311 2 0.0 0.0 15.407752991 40.620433807
312 2 0.0 0.0 15.407752991 57.895793915
313 2 0.0 0.0 15.874653816 8.87112999
314 2 0.0 0.0 15.874653816 26.146490097
315 2 0.0 0.0 15.874653816 43.421848297
316 2 0.0 0.0 15.874653816 60.697208405
317 2 0.0 0.0 16.341554642 11.672539711
318 2 0.0 0.0 16.341554642 28.947896957
319 2 0.0 0.0 16.341554642 46.223255157
320 2 0.0 0.0 16.341554642 63.498615265
321 2 0.0 0.0 16.808458328 14.473948479
322 2 0.0 0.0 16.808458328 31.749307632
323 2 0.0 0.0 16.808458328 49.024665833
324 2 0.0 0.0 16.808458328 66.300018311
325 2 0.0 0.0 0.4669016 2.801409483
326 2 0.0 0.0 0.4669016 20.076768875
327 2 0.0 0.0 0.4669016 37.35212326
328 2 0.0 0.0 0.4669016 54.627483368
329 2 0.0 0.0 0.933803201 5.602818966
330 2 0.0 0.0 0.933803201 22.878177643
331 2 0.0 0.0 0.933803201 40.15353775
332 2 0.0 0.0 0.933803201 57.428897858
333 2 0.0 0.0 1.400704741 8.404229164
334 2 0.0 0.0 1.400704741 25.679586411
335 2 0.0 0.0 1.400704741 42.954944611
336 2 0.0 0.0 1.400704741 60.230304718
337 2 0.0 0.0 1.867606401 11.205637932
338 2 0.0 0.0 1.867606401 28.480997086
339 2 0.0 0.0 1.867606401 45.756355286
340 2 0.0 0.0 1.867606401 63.031715393
341 2 0.0 0.0 2.334507704 14.007047653
342 2 0.0 0.0 2.334507704 31.282405853
343 2 0.0 0.0 2.334507704 48.557765961
344 2 0.0 0.0 2.334507704 65.833122253
345 2 0.0 0.0 2.801409483 16.808458328
346 2 0.0 0.0 2.801409483 34.083820343
347 2 0.0 0.0 2.801409483 51.359172821
348 2 0.0 0.0 2.801409483 68.634529114
349 2 0.0 0.0 3.268311262 2.334507704
350 2 0.0 0.0 3.268311262 19.609867096
351 2 0.0 0.0 3.268311262 36.885223389
352 2 0.0 0.0 3.268311262 54.160583496
353 2 0.0 0.0 3.735212803 5.135917187
354 2 0.0 0.0 3.735212803 22.411275864
355 2 0.0 0.0 3.735212803 39.686634064
356 2 0.0 0.0 3.735212803 56.961994171
357 2 0.0 0.0 4.202114582 7.937326908
358 2 0.0 0.0 4.202114582 25.212684631
359 2 0.0 0.0 4.202114582 42.488044739
360 2 0.0 0.0 4.202114582 59.763404846
361 2 0.0 0.0 4.669015408 10.738736153
362 2 0.0 0.0 4.669015408 28.014095306
363 2 0.0 0.0 4.669015408 45.289451599
364 2 0.0 0.0 4.669015408 62.564811707
365 2 0.0 0.0 5.135917187 13.540145874
366 2 0.0 0.0 5.135917187 30.815505981
367 2 0.0 0.0 5.135917187 48.090866089
368 2 0.0 0.0 5.135917187 65.366218567
369 2 0.0 0.0 5.602818966 16.341554642
370 2 0.0 0.0 5.602818966 33.616916656
371 2 0.0 0.0 5.602818966 50.892272949
372 2 0.0 0.0 5.602818966 68.167640686
373 2 0.0 0.0 6.069720745 1.867606401
374 2 0.0 0.0 6.069720745 19.142965317
375 2 0.0 0.0 6.069720745 36.418319702
376 2 0.0 0.0 6.069720745 53.69367981
377 2 0.0 0.0 6.536622524 4.669015408
378 2 0.0 0.0 6.536622524 21.944374084
379 2 0.0 0.0 6.536622524 39.219734192
380 2 0.0 0.0 6.536622524 56.495094299
381 2 0.0 0.0 7.003523827 7.470425606
382 2 0.0 0.0 7.003523827 24.745782852
383 2 0.0 0.0 7.003523827 42.021141052
384 2 0.0 0.0 7.003523827 59.29650116
385 2 0.0 0.0 7.470425606 10.271834373
386 2 0.0 0.0 7.470425606 27.547193527
387 2 0.0 0.0 7.470425606 44.822551727
388 2 0.0 0.0 7.470425606 62.097911835
389 2 0.0 0.0 7.937326908 13.073245049
390 2 0.0 0.0 7.937326908 30.348604202
391 2 0.0 0.0 7.937326908 47.623962402
392 2 0.0 0.0 7.937326908 64.89931488
393 2 0.0 0.0 8.404229164 15.874653816
394 2 0.0 0.0 8.404229164 33.150009155
395 2 0.0 0.0 8.404229164 50.425369263
396 2 0.0 0.0 8.404229164 67.700737
397 2 0.0 0.0 8.87112999 1.400704741
398 2 0.0 0.0 8.87112999 18.67606163
399 2 0.0 0.0 8.87112999 35.951423645
400 2 0.0 0.0 8.87112999 53.226783752
401 2 0.0 0.0 9.338030815 4.202114582
402 2 0.0 0.0 9.338030815 21.477472305
403 2 0.0 0.0 9.338030815 38.752830505
404 2 0.0 0.0 9.338030815 56.028190613
405 2 0.0 0.0 9.804933548 7.003523827
406 2 0.0 0.0 9.804933548 24.27888298
407 2 0.0 0.0 9.804933548 41.55424118
408 2 0.0 0.0 9.804933548 58.829601288
409 2 0.0 0.0 10.271834373 9.804933548
410 2 0.0 0.0 10.271834373 27.080291748
411 2 0.0 0.0 10.271834373 44.355651855
412 2 0.0 0.0 10.271834373 61.631011963
413 2 0.0 0.0 10.738736153 12.606342316
414 2 0.0 0.0 10.738736153 29.881700516
415 2 0.0 0.0 10.738736153 47.157058716
416 2 0.0 0.0 10.738736153 64.432426453
417 2 0.0 0.0 11.205637932 15.407752991
418 2 0.0 0.0 11.205637932 32.683109283
419 2 0.0 0.0 11.205637932 49.958469391
420 2 0.0 0.0 11.205637932 67.233833313
421 2 0.0 0.0 11.672539711 0.933803201
422 2 0.0 0.0 11.672539711 18.209159851
423 2 0.0 0.0 11.672539711 35.484519958
424 2 0.0 0.0 11.672539711 52.759880066
425 2 0.0 0.0 12.13944149 3.735212803
426 2 0.0 0.0 12.13944149 21.010570526
427 2 0.0 0.0 12.13944149 38.285930634
428 2 0.0 0.0 12.13944149 55.561290741
429 2 0.0 0.0 12.606342316 6.536622524
430 2 0.0 0.0 12.606342316 23.811981201
431 2 0.0 0.0 12.606342316 41.087337494
432 2 0.0 0.0 12.606342316 58.362697601
433 2 0.0 0.0 13.073245049 9.338030815
434 2 0.0 0.0 13.073245049 26.613389969
435 2 0.0 0.0 13.073245049 43.888748169
436 2 0.0 0.0 13.073245049 61.164108276
437 2 0.0 0.0 13.540145874 12.13944149
438 2 0.0 0.0 13.540145874 29.414800644
439 2 0.0 0.0 13.540145874 46.690158844
440 2 0.0 0.0 13.540145874 63.965518951
441 2 0.0 0.0 14.007047653 14.940851212
442 2 0.0 0.0 14.007047653 32.216213226
443 2 0.0 0.0 14.007047653 49.491565704
444 2 0.0 0.0 14.007047653 66.766929626
445 2 0.0 1.420025706 1.634155631 1.167253852
446 2 0.0 1.420025706 1.634155631 18.442611694
447 2 0.0 1.420025706 1.634155631 35.717971802
448 2 0.0 1.420025706 1.634155631 52.993331909
449 2 0.0 1.420025706 16.108106613 1.634155512
450 2 0.0 1.420025706 16.108106613 18.909513474
451 2 0.0 1.420025706 16.108106613 36.184871674
452 2 0.0 1.420025706 16.108106613 53.460231781
453 2 0.0 1.420025706 16.575006485 4.435564995
454 2 0.0 1.420025706 16.575006485 21.710924149
455 2 0.0 1.420025706 16.575006485 38.986282349
456 2 0.0 1.420025706 16.575006485 56.261642456
457 2 0.0 1.420025706 17.041910172 7.236974239
458 2 0.0 1.420025706 17.041910172 24.512332916
459 2 0.0 1.420025706 17.041910172 41.787689209
460 2 0.0 1.420025706 17.041910172 59.063049316
461 2 0.0 1.420025706 0.233451679 10.038384438
462 2 0.0 1.420025706 0.233451679 27.313743591
463 2 0.0 1.420025706 0.233451679 44.589103699
464 2 0.0 1.420025706 0.233451679 61.864463806
465 2 0.0 1.420025706 0.70035094 12.839794159
466 2 0.0 1.420025706 0.70035094 30.115152359
467 2 0.0 1.420025706 0.70035094 47.390510559
468 2 0.0 1.420025706 0.70035094 64.665878296
469 2 0.0 1.420025706 1.16725421 15.641202927
470 2 0.0 1.420025706 1.16725421 32.916561127
471 2 0.0 1.420025706 1.16725421 50.191921234
472 2 0.0 1.420025706 1.16725421 67.467285156
473 2 0.0 1.420025706 2.101057291 3.968663216
474 2 0.0 1.420025706 2.101057291 21.244020462
475 2 0.0 1.420025706 2.101057291 38.519378662
476 2 0.0 1.420025706 2.101057291 55.79473877
477 2 0.0 1.420025706 2.567958593 6.77007246
478 2 0.0 1.420025706 2.567958593 24.045431137
479 2 0.0 1.420025706 2.567958593 41.320789337
480 2 0.0 1.420025706 2.567958593 58.596149445
481 2 0.0 1.420025706 3.034860373 9.571482658
482 2 0.0 1.420025706 3.034860373 26.846839905
483 2 0.0 1.420025706 3.034860373 44.122200012
484 2 0.0 1.420025706 3.034860373 61.39756012
485 2 0.0 1.420025706 3.501761913 12.372891426
486 2 0.0 1.420025706 3.501761913 29.64825058
487 2 0.0 1.420025706 3.501761913 46.923606873
488 2 0.0 1.420025706 3.501761913 64.198974609
489 2 0.0 1.420025706 3.968663454 15.174302101
490 2 0.0 1.420025706 3.968663454 32.44965744
491 2 0.0 1.420025706 3.968663454 49.725017548
492 2 0.0 1.420025706 3.968663454 67.00038147
493 2 0.0 1.420025706 4.435564995 0.700352967
494 2 0.0 1.420025706 4.435564995 17.975711823
495 2 0.0 1.420025706 4.435564995 35.25107193
496 2 0.0 1.420025706 4.435564995 52.526432037
497 2 0.0 1.420025706 4.902466774 3.501761913
498 2 0.0 1.420025706 4.902466774 20.77712059
499 2 0.0 1.420025706 4.902466774 38.05247879
500 2 0.0 1.420025706 4.902466774 55.327838898
501 2 0.0 1.420025706 5.369368076 6.303171158
502 2 0.0 1.420025706 5.369368076 23.578529358
503 2 0.0 1.420025706 5.369368076 40.853885651
504 2 0.0 1.420025706 5.369368076 58.129245758
505 2 0.0 1.420025706 5.836269855 9.104579926
506 2 0.0 1.420025706 5.836269855 26.379940033
507 2 0.0 1.420025706 5.836269855 43.65530014
508 2 0.0 1.420025706 5.836269855 60.930660248
509 2 0.0 1.420025706 6.303171158 11.905990601
510 2 0.0 1.420025706 6.303171158 29.181348801
511 2 0.0 1.420025706 6.303171158 46.456707001
512 2 0.0 1.420025706 6.303171158 63.732067108
513 2 0.0 1.420025706 6.770072937 14.707400322
514 2 0.0 1.420025706 6.770072937 31.982759476
515 2 0.0 1.420025706 6.770072937 49.258113861
516 2 0.0 1.420025706 6.770072937 66.533470154
517 2 0.0 1.420025706 7.236974239 0.233449623
518 2 0.0 1.420025706 7.236974239 17.508808136
519 2 0.0 1.420025706 7.236974239 34.784168243
520 2 0.0 1.420025706 7.236974239 52.059528351
521 2 0.0 1.420025706 7.703876495 3.034860373
522 2 0.0 1.420025706 7.703876495 20.310216904
523 2 0.0 1.420025706 7.703876495 37.585575104
524 2 0.0 1.420025706 7.703876495 54.860935211
525 2 0.0 1.420025706 8.170777321 5.836269379
526 2 0.0 1.420025706 8.170777321 23.111627579
527 2 0.0 1.420025706 8.170777321 40.386985779
528 2 0.0 1.420025706 8.170777321 57.662345886
529 2 0.0 1.420025706 8.6376791 8.6376791
530 2 0.0 1.420025706 8.6376791 25.913038254
531 2 0.0 1.420025706 8.6376791 43.188396454
532 2 0.0 1.420025706 8.6376791 60.463756561
533 2 0.0 1.420025706 9.104579926 11.439088821
534 2 0.0 1.420025706 9.104579926 28.714448929
535 2 0.0 1.420025706 9.104579926 45.989807129
536 2 0.0 1.420025706 9.104579926 63.265167236
537 2 0.0 1.420025706 9.571481705 14.240499496
538 2 0.0 1.420025706 9.571481705 31.515857697
539 2 0.0 1.420025706 9.571481705 48.791217804
540 2 0.0 1.420025706 9.571481705 66.066574097
541 2 0.0 1.420025706 10.038384438 17.041910172
542 2 0.0 1.420025706 10.038384438 34.317272186
543 2 0.0 1.420025706 10.038384438 51.592624664
544 2 0.0 1.420025706 10.038384438 68.867980957
545 2 0.0 1.420025706 10.505285263 2.567958593
546 2 0.0 1.420025706 10.505285263 19.843317032
547 2 0.0 1.420025706 10.505285263 37.118675232
548 2 0.0 1.420025706 10.505285263 54.394035339
549 2 0.0 1.420025706 10.972187042 5.369368076
550 2 0.0 1.420025706 10.972187042 22.6447258
551 2 0.0 1.420025706 10.972187042 39.920085907
552 2 0.0 1.420025706 10.972187042 57.195446014
553 2 0.0 1.420025706 11.439088821 8.170777321
554 2 0.0 1.420025706 11.439088821 25.446136475
555 2 0.0 1.420025706 11.439088821 42.721492767
556 2 0.0 1.420025706 11.439088821 59.996852875
557 2 0.0 1.420025706 11.905990601 10.972187996
558 2 0.0 1.420025706 11.905990601 28.24754715
559 2 0.0 1.420025706 11.905990601 45.522903442
560 2 0.0 1.420025706 11.905990601 62.79826355
561 2 0.0 1.420025706 12.372891426 13.773596764
562 2 0.0 1.420025706 12.372891426 31.048955917
563 2 0.0 1.420025706 12.372891426 48.324314117
564 2 0.0 1.420025706 12.372891426 65.59967041
565 2 0.0 1.420025706 12.839793205 16.575006485
566 2 0.0 1.420025706 12.839793205 33.8503685
567 2 0.0 1.420025706 12.839793205 51.125724792
568 2 0.0 1.420025706 12.839793205 68.401092529
569 2 0.0 1.420025706 13.306695938 2.101057291
570 2 0.0 1.420025706 13.306695938 19.376415253
571 2 0.0 1.420025706 13.306695938 36.651771545
572 2 0.0 1.420025706 13.306695938 53.927131653
573 2 0.0 1.420025706 13.773596764 4.902466774
574 2 0.0 1.420025706 13.773596764 22.177825928
575 2 0.0 1.420025706 13.773596764 39.453186035
576 2 0.0 1.420025706 13.773596764 56.728546143
577 2 0.0 1.420025706 14.240498543 7.703876495
578 2 0.0 1.420025706 14.240498543 24.979234695
579 2 0.0 1.420025706 14.240498543 42.254592896
580 2 0.0 1.420025706 14.240498543 59.529953003
581 2 0.0 1.420025706 14.707400322 10.505285263
582 2 0.0 1.420025706 14.707400322 27.780643463
583 2 0.0 1.420025706 14.707400322 45.055999756
584 2 0.0 1.420025706 14.707400322 62.331359863
585 2 0.0 1.420025706 15.174302101 13.306695938
586 2 0.0 1.420025706 15.174302101 30.582056046
587 2 0.0 1.420025706 15.174302101 47.857414246
588 2 0.0 1.420025706 15.174302101 65.132766724
589 2 0.0 1.420025706 15.641202927 16.108106613
590 2 0.0 1.420025706 15.641202927 33.383464813
591 2 0.0 1.420025706 15.641202927 50.658821106
592 2 0.0 1.420025706 15.641202927 67.934188843
