 LAMMPS input for trinclinic P-1 TATB unitcell

 48     atoms
 120    bonds
 72     angles
 96     dihedrals
 24     impropers

 6      atom types
 6      bond types
 8      angle types
 5      dihedral types
 3      improper types

 0.0   9.01532              xlo xhi
 0.0   7.84427              ylo yhi
 0.0   6.44408              zlo zhi
 -4.55344 1.13076 -2.68395  xy xz yz

 Masses

 1 12.010
 2 12.010
 3 14.007
 4 14.007
 5 15.999
 6 1.0079

 Atoms               

           1           1           1         0.34068        0.43455E+01        0.60585E+00        0.16548E+01
           2           1           2        -0.24300        0.36348E+01       -0.64710E+00        0.16026E+01
           3           1           1         0.34068        0.21862E+01       -0.61023E+00        0.16026E+01
           4           1           2        -0.24300        0.14577E+01        0.63370E+00        0.16181E+01
           5           1           1         0.34068        0.22005E+01        0.18688E+01        0.15736E+01
           6           1           2        -0.24300        0.36462E+01        0.18871E+01        0.16239E+01
           7           1           3         0.67980        0.57779E+01        0.59686E+00        0.17366E+01
           8           1           4        -0.69300        0.42670E+01       -0.17911E+01        0.15394E+01
           9           1           3         0.67980        0.14681E+01       -0.18332E+01        0.15897E+01
          10           1           4        -0.69300        0.14749E+00        0.65886E+00        0.16612E+01
          11           1           3         0.67980        0.14749E+01        0.31055E+01        0.15143E+01
          12           1           4        -0.69300        0.43086E+01        0.30183E+01        0.16219E+01
          13           1           5        -0.51024        0.64357E+01        0.16505E+01        0.18172E+01
          14           1           5        -0.51024        0.64083E+01       -0.47585E+00        0.17018E+01
          15           1           5        -0.51024        0.20595E+01       -0.29277E+01        0.15317E+01
          16           1           5        -0.51024        0.23693E+00       -0.18535E+01        0.16271E+01
          17           1           5        -0.51024        0.22553E+00        0.31382E+01        0.14847E+01
          18           1           5        -0.51024        0.20839E+01        0.42031E+01        0.15382E+01
          19           1           6         0.46800        0.51304E+01       -0.17605E+01        0.15336E+01
          20           1           6         0.46800        0.38746E+01       -0.25177E+01        0.16754E+01
          21           1           6         0.46800       -0.28040E+00        0.32104E-01        0.16367E+01
          22           1           6         0.46800       -0.38408E+00        0.15774E+01        0.16367E+01
          23           1           6         0.46800        0.38562E+01        0.37692E+01        0.15723E+01
          24           1           6         0.46800        0.52089E+01        0.29600E+01        0.14434E+01
          25           2           1         0.34068        0.12470E+01        0.45544E+01        0.47892E+01
          26           2           2        -0.24300        0.19578E+01        0.58074E+01        0.48414E+01
          27           2           1         0.34068        0.34063E+01        0.57705E+01        0.48414E+01
          28           2           2        -0.24300        0.41348E+01        0.45266E+01        0.48259E+01
          29           2           1         0.34068        0.33920E+01        0.32914E+01        0.48704E+01
          30           2           2        -0.24300        0.19464E+01        0.32731E+01        0.48201E+01
          31           2           3         0.67980       -0.18525E+00        0.45634E+01        0.47074E+01
          32           2           4        -0.69300        0.13256E+01        0.69514E+01        0.49045E+01
          33           2           3         0.67980        0.41244E+01        0.69936E+01        0.48543E+01
          34           2           4        -0.69300        0.54451E+01        0.45014E+01        0.47827E+01
          35           2           3         0.67980        0.41176E+01        0.20548E+01        0.49297E+01
          36           2           4        -0.69300        0.12839E+01        0.21420E+01        0.48221E+01
          37           2           5        -0.51024       -0.84305E+00        0.35097E+01        0.46268E+01
          38           2           5        -0.51024       -0.81566E+00        0.56361E+01        0.47422E+01
          39           2           5        -0.51024        0.35331E+01        0.80880E+01        0.49123E+01
          40           2           5        -0.51024        0.53557E+01        0.70138E+01        0.48169E+01
          41           2           5        -0.51024        0.53671E+01        0.20220E+01        0.49593E+01
          42           2           5        -0.51024        0.35087E+01        0.95714E+00        0.49058E+01
          43           2           6         0.46800        0.46222E+00        0.69208E+01        0.49103E+01
          44           2           6         0.46800        0.17179E+01        0.76780E+01        0.47686E+01
          45           2           6         0.46800        0.58730E+01        0.51282E+01        0.48072E+01
          46           2           6         0.46800        0.59767E+01        0.35828E+01        0.48072E+01
          47           2           6         0.46800        0.17364E+01        0.13910E+01        0.48717E+01
          48           2           6         0.46800        0.38368E+00        0.22002E+01        0.50006E+01

 Bonds               

           1           1           1           2
           2           1           2           3
           3           1           3           4
           4           1           4           5
           5           1           5           6
           6           1           6           1
           7           2           1           7
           8           2           3           9
           9           2           5          11
          10           3           2           8
          11           3           4          10
          12           3           6          12
          13           4           7          13
          14           4           7          14
          15           4           9          15
          16           4           9          16
          17           4          11          17
          18           4          11          18
          19           5           8          19
          20           5           8          20
          21           5          10          21
          22           5          10          22
          23           5          12          23
          24           5          12          24
          25           6          13          19
          26           6          13          20
          27           6          13          23
          28           6          13          24
          29           6          14          19
          30           6          14          20
          31           6          14          23
          32           6          14          24
          33           6          15          19
          34           6          15          20
          35           6          15          21
          36           6          15          22
          37           6          16          19
          38           6          16          20
          39           6          16          21
          40           6          16          22
          41           6          17          21
          42           6          17          22
          43           6          17          23
          44           6          17          24
          45           6          18          21
          46           6          18          22
          47           6          18          23
          48           6          18          24
          49           6          13          21
          50           6          13          22
          51           6          14          21
          52           6          14          22
          53           6          15          23
          54           6          15          24
          55           6          16          23
          56           6          16          24
          57           6          17          19
          58           6          17          20
          59           6          18          19
          60           6          18          20
          61           1          25          26
          62           1          26          27
          63           1          27          28
          64           1          28          29
          65           1          29          30
          66           1          30          25
          67           2          25          31
          68           2          27          33
          69           2          29          35
          70           3          26          32
          71           3          28          34
          72           3          30          36
          73           4          31          37
          74           4          31          38
          75           4          33          39
          76           4          33          40
          77           4          35          41
          78           4          35          42
          79           5          32          43
          80           5          32          44
          81           5          34          45
          82           5          34          46
          83           5          36          47
          84           5          36          48
          85           6          37          43
          86           6          37          44
          87           6          37          47
          88           6          37          48
          89           6          38          43
          90           6          38          44
          91           6          38          47
          92           6          38          48
          93           6          39          43
          94           6          39          44
          95           6          39          45
          96           6          39          46
          97           6          40          43
          98           6          40          44
          99           6          40          45
         100           6          40          46
         101           6          41          45
         102           6          41          46
         103           6          41          47
         104           6          41          48
         105           6          42          45
         106           6          42          46
         107           6          42          47
         108           6          42          48
         109           6          37          45
         110           6          37          46
         111           6          38          45
         112           6          38          46
         113           6          39          47
         114           6          39          48
         115           6          40          47
         116           6          40          48
         117           6          41          43
         118           6          41          44
         119           6          42          43
         120           6          42          44

 Angles              

           1           1           1           2           3
           2           2           2           3           4
           3           1           3           4           5
           4           2           4           5           6
           5           1           5           6           1
           6           2           6           1           2
           7           4           6           1           7
           8           4           2           1           7
           9           3           1           2           8
          10           3           3           2           8
          11           4           2           3           9
          12           4           4           3           9
          13           3           3           4          10
          14           3           5           4          10
          15           4           4           5          11
          16           4           6           5          11
          17           3           5           6          12
          18           3           1           6          12
          19           5           1           7          13
          20           5           1           7          14
          21           7          13           7          14
          22           5           3           9          15
          23           5           3           9          16
          24           7          15           9          16
          25           5           5          11          17
          26           5           5          11          18
          27           7          17          11          18
          28           6           2           8          19
          29           6           2           8          20
          30           8          19           8          20
          31           6           4          10          21
          32           6           4          10          22
          33           8          21          10          22
          34           6           6          12          23
          35           6           6          12          24
          36           8          23          12          24
          37           1          25          26          27
          38           2          26          27          28
          39           1          27          28          29
          40           2          28          29          30
          41           1          29          30          25
          42           2          30          25          26
          43           4          30          25          31
          44           4          26          25          31
          45           3          25          26          32
          46           3          27          26          32
          47           4          26          27          33
          48           4          28          27          33
          49           3          27          28          34
          50           3          29          28          34
          51           4          28          29          35
          52           4          30          29          35
          53           3          29          30          36
          54           3          25          30          36
          55           5          25          31          37
          56           5          25          31          38
          57           7          37          31          38
          58           5          27          33          39
          59           5          27          33          40
          60           7          39          33          40
          61           5          29          35          41
          62           5          29          35          42
          63           7          41          35          42
          64           6          26          32          43
          65           6          26          32          44
          66           8          43          32          44
          67           6          28          34          45
          68           6          28          34          46
          69           8          45          34          46
          70           6          30          36          47
          71           6          30          36          48
          72           8          47          36          48

 Dihedrals           

           1           1           1           2           3           4
           2           1           2           3           4           5
           3           1           3           4           5           6
           4           1           4           5           6           1
           5           1           5           6           1           2
           6           1           6           1           2           3
           7           2           1           2           3           9
           8           2           2           3           4          10
           9           2           3           4           5          11
          10           2           4           5           6          12
          11           2           5           6           1           7
          12           2           6           1           2           8
          13           2           3           2           1           7
          14           2           4           3           2           8
          15           2           5           4           3           9
          16           2           6           5           4          10
          17           2           1           6           5          11
          18           2           2           1           6          12
          19           3           7           1           2           8
          20           3           8           2           3           9
          21           3           9           3           4          10
          22           3          10           4           5          11
          23           3          11           5           6          12
          24           3          12           6           1           7
          25           4          13           7           1           6
          26           4          13           7           1           2
          27           4          14           7           1           6
          28           4          14           7           1           2
          29           4          15           9           3           2
          30           4          15           9           3           4
          31           4          16           9           3           2
          32           4          16           9           3           4
          33           4          17          11           5           4
          34           4          17          11           5           6
          35           4          18          11           5           4
          36           4          18          11           5           6
          37           5          19           8           2           1
          38           5          19           8           2           3
          39           5          20           8           2           1
          40           5          20           8           2           3
          41           5          21          10           4           3
          42           5          21          10           4           5
          43           5          22          10           4           3
          44           5          22          10           4           5
          45           5          23          12           6           5
          46           5          23          12           6           1
          47           5          24          12           6           5
          48           5          24          12           6           1
          49           1          25          26          27          28
          50           1          26          27          28          29
          51           1          27          28          29          30
          52           1          28          29          30          25
          53           1          29          30          25          26
          54           1          30          25          26          27
          55           2          25          26          27          33
          56           2          26          27          28          34
          57           2          27          28          29          35
          58           2          28          29          30          36
          59           2          29          30          25          31
          60           2          30          25          26          32
          61           2          27          26          25          31
          62           2          28          27          26          32
          63           2          29          28          27          33
          64           2          30          29          28          34
          65           2          25          30          29          35
          66           2          26          25          30          36
          67           3          31          25          26          32
          68           3          32          26          27          33
          69           3          33          27          28          34
          70           3          34          28          29          35
          71           3          35          29          30          36
          72           3          36          30          25          31
          73           4          37          31          25          30
          74           4          37          31          25          26
          75           4          38          31          25          30
          76           4          38          31          25          26
          77           4          39          33          27          26
          78           4          39          33          27          28
          79           4          40          33          27          26
          80           4          40          33          27          28
          81           4          41          35          29          28
          82           4          41          35          29          30
          83           4          42          35          29          28
          84           4          42          35          29          30
          85           5          43          32          26          25
          86           5          43          32          26          27
          87           5          44          32          26          25
          88           5          44          32          26          27
          89           5          45          34          28          27
          90           5          45          34          28          29
          91           5          46          34          28          27
          92           5          46          34          28          29
          93           5          47          36          30          29
          94           5          47          36          30          25
          95           5          48          36          30          29
          96           5          48          36          30          25

 Impropers           

           1           1           1           2           6           7
           2           1           2           3           1           8
           3           1           3           4           2           9
           4           1           4           5           3          10
           5           1           5           6           4          11
           6           1           6           1           5          12
           7           2           7          13          14           1
           8           2           9          15          16           3
           9           2          11          17          18           5
          10           3           8          19          20           2
          11           3          10          21          22           4
          12           3          12          23          24           6
          13           1          25          26          30          31
          14           1          26          27          25          32
          15           1          27          28          26          33
          16           1          28          29          27          34
          17           1          29          30          28          35
          18           1          30          25          29          36
          19           2          31          37          38          25
          20           2          33          39          40          27
          21           2          35          41          42          29
          22           3          32          43          44          26
          23           3          34          45          46          28
          24           3          36          47          48          30

