# LAMMPS data file written by Ovito 3.0.0-dev419
44 atoms
5 atom types
0.0 30.0 xlo xhi
0.0 30.0 ylo yhi
0.0 30.0 zlo zhi

Atoms # charge

1 1 0.0 14.19810009 16.230800629 15.516999245
2 2 0.0 12.715800285 12.454899788 13.797400475
3 2 0.0 9.648300171 16.076000214 14.182999611
4 2 0.0 9.884300232 14.30300045 15.596099854
5 2 0.0 17.159799576 12.959500313 16.2166996
6 2 0.0 11.304130554 12.286414146 17.174741745
7 3 0.0 12.521900177 14.26309967 15.301800728
8 3 0.0 15.567700386 13.619299889 14.662500381
9 4 0.0 13.68999958 14.582300186 16.12789917
10 4 0.0 12.432999611 16.667900085 15.113400459
11 4 0.0 11.832900047 15.336000443 14.613800049
12 4 0.0 14.385800362 13.367500305 15.498999596
13 4 0.0 13.081899643 13.173899651 14.699299812
14 4 0.0 11.78069973 17.222400665 16.38710022
15 4 0.0 12.4229002 17.731300354 14.013699532
16 4 0.0 10.370400429 15.157601357 14.870300293
17 4 0.0 16.872999191 13.389300346 15.102399826
18 4 0.0 17.902000427 13.734499931 14.043700218
19 4 0.0 18.867900848 14.805100441 14.477499962
20 4 0.0 18.566999435 16.137300491 14.231300354
21 4 0.0 20.045700073 14.444399834 15.117099762
22 4 0.0 19.461900711 17.12899971 14.633000374
23 4 0.0 20.940500259 15.436200142 15.519000053
24 4 0.0 20.648599625 16.778600693 15.276900291
25 5 0.0 13.483300209 14.514800072 17.199899673
26 5 0.0 12.003899574 15.19260025 13.538399696
27 5 0.0 14.549099922 12.541500092 16.20249939
28 5 0.0 11.734499931 16.476100922 17.188199997
29 5 0.0 12.327599525 18.092100143 16.770900726
30 5 0.0 10.755399704 17.557199478 16.194400787
31 5 0.0 12.933400154 18.646699905 14.335599899
32 5 0.0 12.915800095 17.37789917 13.100500107
33 5 0.0 11.399200439 18.011899948 13.743900299
34 5 0.0 15.435899734 13.988699913 13.723799706
35 5 0.0 8.68500042 15.976201057 14.338899612
36 5 0.0 18.445299149 12.810899734 13.805000305
37 5 0.0 17.422899246 14.035400391 13.104000092
38 5 0.0 17.644300461 16.420600891 13.732500076
39 5 0.0 20.281799316 13.402099609 15.312000275
40 5 0.0 19.234300613 18.17429924 14.445199966
41 5 0.0 21.864200592 15.16340065 16.020900726
42 5 0.0 21.345100403 17.550800323 15.590100288
43 5 0.0 10.618599892 11.626112938 17.358383179
44 5 0.0 10.815292358 12.947476387 16.642805099
