# LAMMPS data file written by Ovito Basic 3.0.0-dev791
544 atoms
2 atom types
0.0 41.1023979187 xlo xhi
0.0 41.1023979187 ylo yhi
0.0 10.7302999496 zlo zhi

Atoms  # charge

1 1 0.0 29.428977966 20.551195145 0.0
2 1 0.0 29.334014893 21.851104736 0.565486848
3 1 0.0 28.648189545 24.191362381 0.282206863
4 1 0.0 27.352499008 26.257284164 0.0
5 1 0.0 29.422647476 20.878284454 2.824214697
6 1 0.0 29.308692932 22.013593674 1.976521134
7 1 0.0 28.998487473 23.279735565 2.542008162
8 1 0.0 28.580659866 24.339076996 1.694314241
9 1 0.0 27.939146042 25.474386215 2.259801149
10 1 0.0 27.244876862 26.381790161 1.412107348
11 1 0.0 26.32059288 27.299741745 1.976521134
12 1 0.0 25.406858444 27.98346138 1.129900575
13 1 0.0 24.265218735 28.614421844 1.694314241
14 1 0.0 23.201658249 29.023809433 0.846620619
15 1 0.0 21.931293488 29.321353912 1.412107348
16 1 0.0 20.795984268 29.424757004 0.564413726
17 1 0.0 19.493968964 29.36566925 1.129900575
18 1 0.0 18.371318817 29.156755447 0.282206863
19 1 0.0 17.134719849 28.745258331 0.847693682
20 1 0.0 16.113365173 28.238800049 0.0
21 1 0.0 15.035031319 27.506546021 0.565486848
22 1 0.0 13.348948479 25.742385864 0.282206863
23 1 0.0 12.20941925 23.587833405 0.0
24 1 0.0 29.416313171 21.040771484 4.235249519
25 1 0.0 29.247495651 22.334352493 4.800736427
26 1 0.0 28.947839737 23.433786392 3.953042269
27 1 0.0 28.435052872 24.632400513 4.518529415
28 1 0.0 27.84629631 25.609441757 3.670835257
29 1 0.0 27.027523041 26.62446785 4.236322403
30 1 0.0 26.193981171 27.405256271 3.388628483
31 1 0.0 25.130418777 28.15650177 3.953042269
32 1 0.0 24.117502213 28.681951523 3.106421471
33 1 0.0 22.887231827 29.116662979 3.670835257
34 1 0.0 21.770915985 29.344566345 2.824214697
35 1 0.0 20.468896866 29.428977966 3.388628483
36 1 0.0 19.331480026 29.344566345 2.540934801
37 1 0.0 18.056894302 29.070234299 3.106421471
38 1 0.0 16.984891891 28.681951523 2.258728266
39 1 0.0 15.832700729 28.072092056 2.824214697
40 1 0.0 14.906306267 27.403144836 1.976521134
41 1 0.0 13.965139389 26.504182816 2.542008162
42 1 0.0 13.256098747 25.609441757 1.694314241
43 1 0.0 12.593482971 24.486793518 2.259801149
44 1 0.0 12.154554367 23.433786392 1.412107348
45 1 0.0 11.823245049 22.171859741 1.976521134
46 1 0.0 11.686080933 21.040771484 1.129900575
47 1 0.0 11.711402893 19.736646652 1.694314241
48 1 0.0 11.888663292 18.609775543 0.846620619
49 1 0.0 12.266395569 17.362625122 1.412107348
50 1 0.0 12.743309975 16.326499939 0.564413726
51 1 0.0 13.446020126 15.227063179 1.129900575
52 1 0.0 14.188824654 14.359753609 0.282206863
53 1 0.0 15.163755417 13.494555473 0.847693682
54 1 0.0 16.113365173 12.863594055 0.0
55 1 0.0 17.286657333 12.295940399 0.565486848
56 1 0.0 19.656455994 11.717733383 0.282206863
57 1 0.0 22.093782425 11.808473587 0.0
58 1 0.0 29.390991211 21.365749359 7.059463501
59 1 0.0 29.213731766 22.492616653 6.211769581
60 1 0.0 28.835996628 23.74187851 6.777256966
61 1 0.0 28.359083176 24.778007507 5.929563522
62 1 0.0 27.656373978 25.875331879 6.495049953
63 1 0.0 26.913570404 26.742639542 5.64735651
64 1 0.0 25.938638687 27.607839584 6.212842941
65 1 0.0 24.989032745 28.238800049 5.365149498
66 1 0.0 23.815736771 28.80645752 5.930635929
67 1 0.0 22.73107338 29.156755447 5.082942486
68 1 0.0 21.445940018 29.384660721 5.64735651
69 1 0.0 20.306413651 29.424757004 4.800736427
70 1 0.0 19.008611679 29.29391861 5.365149498
71 1 0.0 17.900735855 29.023809433 4.518529415
72 1 0.0 16.687347412 28.544782639 5.082942486
73 1 0.0 15.695534706 27.98346138 4.235249519
74 1 0.0 14.659408569 27.192121506 4.800736427
75 1 0.0 13.855406761 26.381790161 3.953042269
76 1 0.0 13.07461834 25.337221146 4.518529415
77 1 0.0 12.521734238 24.339076996 3.670835257
78 1 0.0 12.053261757 23.123580933 4.236322403
79 1 0.0 11.793702126 22.011482239 3.388628483
80 1 0.0 11.675528526 20.713684082 3.953042269
81 1 0.0 11.728284836 19.574157715 3.106421471
82 1 0.0 11.964631081 18.293241501 3.670835257
83 1 0.0 12.325482368 17.210687637 2.824214697
84 1 0.0 12.903688431 16.04161644 3.388628483
85 1 0.0 13.545201302 15.098338127 2.540934801
86 1 0.0 14.418840408 14.131848335 3.106421471
87 1 0.0 15.294589996 13.397484779 2.258728266
88 1 0.0 16.398248672 12.70532608 2.824214697
89 1 0.0 17.438594818 12.236852646 1.976521134
90 1 0.0 18.689964294 11.871781349 2.542008162
91 1 0.0 19.818944931 11.702961922 1.694314241
92 1 0.0 21.120960236 11.692411423 2.259801149
93 1 0.0 22.254159927 11.838018417 1.412107348
94 1 0.0 23.511863708 12.181986809 1.976521134
95 1 0.0 24.560651779 12.629357338 1.129900575
96 1 0.0 25.676969528 13.302524567 1.694314241
97 1 0.0 26.563270569 14.020005226 0.846620619
98 1 0.0 27.4559021 14.971723557 1.412107348
99 1 0.0 28.114295959 15.902340889 0.564413726
100 1 0.0 28.713603973 17.060861588 1.129900575
101 1 0.0 29.093446732 18.134973526 0.282206863
102 1 0.0 29.355117798 19.413780212 0.847693682
103 1 0.0 29.374109268 21.528238297 8.471570969
104 1 0.0 29.135650635 22.811265945 9.035984993
105 1 0.0 28.776912689 23.891708374 8.18936348
106 1 0.0 28.198707581 25.060777664 8.753777504
107 1 0.0 27.557193756 26.004056931 7.906084538
108 1 0.0 26.681444168 26.972658157 8.471570969
109 1 0.0 25.807804108 27.704910278 7.623877525
110 1 0.0 24.704149246 28.397068024 8.18936348
111 1 0.0 23.663799286 28.865541458 7.341670513
112 1 0.0 22.412427902 29.232723236 7.907156944
113 1 0.0 21.28345108 29.399433136 7.059463501
114 1 0.0 19.979322433 29.409982681 7.624950886
115 1 0.0 18.848232269 29.264375687 6.777256966
116 1 0.0 17.590532303 28.920408249 7.341670513
117 1 0.0 16.541740417 28.47303772 6.495049953
118 1 0.0 15.425424576 27.799871445 7.059463501
119 1 0.0 14.539123535 27.082387924 6.211769581
120 1 0.0 13.646492958 26.130670547 6.777256966
121 1 0.0 12.988099098 25.200056076 5.929563522
122 1 0.0 12.388790131 24.041536331 6.495049953
123 1 0.0 12.008947372 22.967420578 5.64735651
124 1 0.0 11.747276306 21.688615799 6.212842941
125 1 0.0 11.673418045 20.551195145 5.365149498
126 1 0.0 11.768380165 19.251291275 5.930635929
127 1 0.0 12.008947372 18.134973526 5.082942486
128 1 0.0 12.454208374 16.908924103 5.64735651
129 1 0.0 12.988099098 15.902340889 4.800736427
130 1 0.0 13.749896049 14.845108032 5.365149498
131 1 0.0 14.539123535 14.020005226 4.518529415
132 1 0.0 15.560480118 13.209672928 5.082942486
133 1 0.0 16.543849945 12.629357338 4.235249519
134 1 0.0 17.746688843 12.129230499 4.800736427
135 1 0.0 18.850347519 11.838018417 3.953042269
136 1 0.0 20.143920898 11.681859016 4.518529415
137 1 0.0 21.285562515 11.702961922 3.670835257
138 1 0.0 22.572805405 11.907654762 4.236322403
139 1 0.0 23.663799286 12.236852646 3.388628483
140 1 0.0 24.847644806 12.78340435 3.953042269
141 1 0.0 25.809913635 13.397484779 3.106421471
142 1 0.0 26.799619675 14.245800972 3.670835257
143 1 0.0 27.557193756 15.098338127 2.824214697
144 1 0.0 28.281003952 16.183002472 3.388628483
145 1 0.0 28.776912689 17.210687637 2.540934801
146 1 0.0 29.177856445 18.451507568 3.106421471
147 1 0.0 29.374109268 19.574157715 2.258728266
148 1 0.0 29.093446732 22.967420578 10.448091507
149 1 0.0 28.114295959 25.200056076 10.165884972
150 1 0.0 26.563270569 27.082387924 9.883678436
151 1 0.0 25.541913986 27.892723083 10.448091507
152 1 0.0 24.558542252 28.47303772 9.600399017
153 1 0.0 23.355705261 28.975273132 10.165884972
154 1 0.0 22.2520504 29.264375687 9.318191528
155 1 0.0 20.958475113 29.420534134 9.883678436
156 1 0.0 19.816835403 29.399433136 9.035984993
157 1 0.0 18.529586792 29.194740295 9.601472855
158 1 0.0 17.438594818 28.865541458 8.753777504
159 1 0.0 16.252635956 28.3189888 9.318191528
160 1 0.0 15.292481422 27.704910278 8.471570969
161 1 0.0 14.302778244 26.856590271 9.035984993
162 1 0.0 13.545201302 26.004056931 8.18936348
163 1 0.0 12.821389198 24.919393539 8.753777504
164 1 0.0 12.325482368 23.891708374 7.906084538
165 1 0.0 11.924537659 22.650884628 8.471570969
166 1 0.0 11.728284836 21.526126862 7.623877525
167 1 0.0 11.679750443 20.22410965 8.18936348
168 1 0.0 11.793702126 19.08880043 7.341670513
169 1 0.0 12.103907585 17.822658539 7.907156944
170 1 0.0 12.523844719 16.761205673 7.059463501
171 1 0.0 13.165358543 15.625898361 7.624950886
172 1 0.0 13.857515335 14.720604897 6.777256966
173 1 0.0 14.783912659 13.802650452 7.341670513
174 1 0.0 15.695534706 13.118932724 6.495049953
175 1 0.0 16.837175369 12.487971306 7.059463501
176 1 0.0 17.900735855 12.078585625 6.211769581
177 1 0.0 19.171098709 11.781041145 6.777256966
178 1 0.0 20.306413651 11.677639008 5.929563522
179 1 0.0 21.610538483 11.736725807 6.495049953
180 1 0.0 22.73107338 11.94563961 5.64735651
181 1 0.0 23.967674255 12.357135773 6.212842941
182 1 0.0 24.991142273 12.863594055 5.365149498
183 1 0.0 26.069475174 13.59584713 5.930635929
184 1 0.0 26.915679932 14.36186409 5.082942486
185 1 0.0 27.753446579 15.360007286 5.64735651
186 1 0.0 28.359083176 16.326499939 4.800736427
187 1 0.0 28.892974854 17.514562607 5.365149498
188 1 0.0 29.213731766 18.609775543 4.518529415
189 1 0.0 29.405763626 19.899133682 5.082942486
190 1 0.0 14.186714172 26.740530014 10.448091507
191 1 0.0 12.743309975 24.775896072 10.165884972
192 1 0.0 11.888663292 22.492616653 9.883678436
193 1 0.0 11.696631432 21.201150894 10.448091507
194 1 0.0 11.686080933 20.06162262 9.600399017
195 1 0.0 11.854899406 18.768043518 10.165884972
196 1 0.0 12.154554367 17.668609619 9.318191528
197 1 0.0 12.667341232 16.469991684 9.883678436
198 1 0.0 13.256098747 15.492952347 9.035984993
199 1 0.0 14.074872017 14.477927208 9.601472855
200 1 0.0 14.908417702 13.697138786 8.753777504
201 1 0.0 15.971977234 12.945893288 9.318191528
202 1 0.0 16.984891891 12.420443535 8.471570969
203 1 0.0 18.215162277 11.985733986 9.035984993
204 1 0.0 19.331480026 11.757827759 8.18936348
205 1 0.0 20.633495331 11.673418045 8.753777504
206 1 0.0 21.770915985 11.757827759 7.906084538
207 1 0.0 23.045499802 12.032158852 8.471570969
208 1 0.0 24.117502213 12.420443535 7.623877525
209 1 0.0 25.269695282 13.032412529 8.18936348
210 1 0.0 26.196086884 13.699249268 7.341670513
211 1 0.0 27.137256622 14.600320816 7.907156944
212 1 0.0 27.84629631 15.492952347 7.059463501
213 1 0.0 28.50891304 16.615598679 7.624950886
214 1 0.0 28.947839737 17.668609619 6.777256966
215 1 0.0 29.279150009 18.93053627 7.341670513
216 1 0.0 29.416313171 20.063735962 6.495049953
217 1 0.0 18.373430252 11.94563961 10.448091507
218 1 0.0 20.795984268 11.677639008 10.165884972
219 1 0.0 23.201658249 12.078585625 9.883678436
220 1 0.0 24.415044785 12.557609558 10.448091507
221 1 0.0 25.406858444 13.118932724 9.600399017
222 1 0.0 26.442987442 13.910272598 10.165884972
223 1 0.0 27.246988297 14.720604897 9.318191528
224 1 0.0 28.027776718 15.765172958 9.883678436
225 1 0.0 28.580659866 16.763317108 9.035984993
226 1 0.0 29.049133301 17.980924606 9.601472855
227 1 0.0 29.308692932 19.090909958 8.753777504
228 1 0.0 29.426864624 20.388711929 9.318191528
229 2 0.0 36.992195129 36.992195129 8.047709465
230 2 0.0 36.992195129 36.992195129 5.365139961
231 2 0.0 36.992195129 36.992195129 2.682569981
232 2 0.0 36.992195129 36.992195129 0.0
233 2 0.0 36.992195129 32.881900787 8.047709465
234 2 0.0 36.992195129 32.881900787 5.365139961
235 2 0.0 36.992195129 32.881900787 2.682569981
236 2 0.0 36.992195129 32.881900787 0.0
237 2 0.0 36.992195129 28.771697998 8.047709465
238 2 0.0 36.992195129 28.771697998 5.365139961
239 2 0.0 36.992195129 28.771697998 2.682569981
240 2 0.0 36.992195129 28.771697998 0.0
241 2 0.0 36.992195129 24.661397934 8.047709465
242 2 0.0 36.992195129 24.661397934 5.365139961
243 2 0.0 36.992195129 24.661397934 2.682569981
244 2 0.0 36.992195129 24.661397934 0.0
245 2 0.0 36.992195129 20.551198959 8.047709465
246 2 0.0 36.992195129 20.551198959 5.365139961
247 2 0.0 36.992195129 20.551198959 2.682569981
248 2 0.0 36.992195129 20.551198959 0.0
249 2 0.0 36.992195129 16.440998077 8.047709465
250 2 0.0 36.992195129 16.440998077 5.365139961
251 2 0.0 36.992195129 16.440998077 2.682569981
252 2 0.0 36.992195129 16.440998077 0.0
253 2 0.0 36.992195129 12.330698967 8.047709465
254 2 0.0 36.992195129 12.330698967 5.365139961
255 2 0.0 36.992195129 12.330698967 2.682569981
256 2 0.0 36.992195129 12.330698967 0.0
257 2 0.0 36.992195129 8.220479965 8.047709465
258 2 0.0 36.992195129 8.220479965 5.365139961
259 2 0.0 36.992195129 8.220479965 2.682569981
260 2 0.0 36.992195129 8.220479965 0.0
261 2 0.0 36.992195129 4.110239506 8.047709465
262 2 0.0 36.992195129 4.110239506 5.365139961
263 2 0.0 36.992195129 4.110239506 2.682569981
264 2 0.0 36.992195129 4.110239506 0.0
265 2 0.0 36.992195129 0.0 8.047709465
266 2 0.0 36.992195129 0.0 5.365139961
267 2 0.0 36.992195129 0.0 2.682569981
268 2 0.0 36.992195129 0.0 0.0
269 2 0.0 32.881900787 36.992195129 8.047709465
270 2 0.0 32.881900787 36.992195129 5.365139961
271 2 0.0 32.881900787 36.992195129 2.682569981
272 2 0.0 32.881900787 36.992195129 0.0
273 2 0.0 32.881900787 32.881900787 8.047709465
274 2 0.0 32.881900787 32.881900787 5.365139961
275 2 0.0 32.881900787 32.881900787 2.682569981
276 2 0.0 32.881900787 32.881900787 0.0
277 2 0.0 32.881900787 28.771697998 8.047709465
278 2 0.0 32.881900787 28.771697998 5.365139961
279 2 0.0 32.881900787 28.771697998 2.682569981
280 2 0.0 32.881900787 28.771697998 0.0
281 2 0.0 32.881900787 24.661397934 8.047709465
282 2 0.0 32.881900787 24.661397934 5.365139961
283 2 0.0 32.881900787 24.661397934 2.682569981
284 2 0.0 32.881900787 24.661397934 0.0
285 2 0.0 32.881900787 20.551198959 8.047709465
286 2 0.0 32.881900787 20.551198959 5.365139961
287 2 0.0 32.881900787 20.551198959 2.682569981
288 2 0.0 32.881900787 20.551198959 0.0
289 2 0.0 32.881900787 16.440998077 8.047709465
290 2 0.0 32.881900787 16.440998077 5.365139961
291 2 0.0 32.881900787 16.440998077 2.682569981
292 2 0.0 32.881900787 16.440998077 0.0
293 2 0.0 32.881900787 12.330698967 8.047709465
294 2 0.0 32.881900787 12.330698967 5.365139961
295 2 0.0 32.881900787 12.330698967 2.682569981
296 2 0.0 32.881900787 12.330698967 0.0
297 2 0.0 32.881900787 8.220479965 8.047709465
298 2 0.0 32.881900787 8.220479965 5.365139961
299 2 0.0 32.881900787 8.220479965 2.682569981
300 2 0.0 32.881900787 8.220479965 0.0
301 2 0.0 32.881900787 4.110239506 8.047709465
302 2 0.0 32.881900787 4.110239506 5.365139961
303 2 0.0 32.881900787 4.110239506 2.682569981
304 2 0.0 32.881900787 4.110239506 0.0
305 2 0.0 32.881900787 0.0 8.047709465
306 2 0.0 32.881900787 0.0 5.365139961
307 2 0.0 32.881900787 0.0 2.682569981
308 2 0.0 32.881900787 0.0 0.0
309 2 0.0 28.771697998 36.992195129 8.047709465
310 2 0.0 28.771697998 36.992195129 5.365139961
311 2 0.0 28.771697998 36.992195129 2.682569981
312 2 0.0 28.771697998 36.992195129 0.0
313 2 0.0 28.771697998 32.881900787 8.047709465
314 2 0.0 28.771697998 32.881900787 5.365139961
315 2 0.0 28.771697998 32.881900787 2.682569981
316 2 0.0 28.771697998 32.881900787 0.0
317 2 0.0 28.771697998 28.771697998 8.047709465
318 2 0.0 28.771697998 28.771697998 5.365139961
319 2 0.0 28.771697998 28.771697998 2.682569981
320 2 0.0 28.771697998 28.771697998 0.0
321 2 0.0 28.771697998 12.330698967 8.047709465
322 2 0.0 28.771697998 12.330698967 5.365139961
323 2 0.0 28.771697998 12.330698967 2.682569981
324 2 0.0 28.771697998 12.330698967 0.0
325 2 0.0 28.771697998 8.220479965 8.047709465
326 2 0.0 28.771697998 8.220479965 5.365139961
327 2 0.0 28.771697998 8.220479965 2.682569981
328 2 0.0 28.771697998 8.220479965 0.0
329 2 0.0 28.771697998 4.110239506 8.047709465
330 2 0.0 28.771697998 4.110239506 5.365139961
331 2 0.0 28.771697998 4.110239506 2.682569981
332 2 0.0 28.771697998 4.110239506 0.0
333 2 0.0 28.771697998 0.0 8.047709465
334 2 0.0 28.771697998 0.0 5.365139961
335 2 0.0 28.771697998 0.0 2.682569981
336 2 0.0 28.771697998 0.0 0.0
337 2 0.0 24.661397934 36.992195129 8.047709465
338 2 0.0 24.661397934 36.992195129 5.365139961
339 2 0.0 24.661397934 36.992195129 2.682569981
340 2 0.0 24.661397934 36.992195129 0.0
341 2 0.0 24.661397934 32.881900787 8.047709465
342 2 0.0 24.661397934 32.881900787 5.365139961
343 2 0.0 24.661397934 32.881900787 2.682569981
344 2 0.0 24.661397934 32.881900787 0.0
345 2 0.0 24.661397934 8.220479965 8.047709465
346 2 0.0 24.661397934 8.220479965 5.365139961
347 2 0.0 24.661397934 8.220479965 2.682569981
348 2 0.0 24.661397934 8.220479965 0.0
349 2 0.0 24.661397934 4.110239506 8.047709465
350 2 0.0 24.661397934 4.110239506 5.365139961
351 2 0.0 24.661397934 4.110239506 2.682569981
352 2 0.0 24.661397934 4.110239506 0.0
353 2 0.0 24.661397934 0.0 8.047709465
354 2 0.0 24.661397934 0.0 5.365139961
355 2 0.0 24.661397934 0.0 2.682569981
356 2 0.0 24.661397934 0.0 0.0
357 2 0.0 20.551198959 36.992195129 8.047709465
358 2 0.0 20.551198959 36.992195129 5.365139961
359 2 0.0 20.551198959 36.992195129 2.682569981
360 2 0.0 20.551198959 36.992195129 0.0
361 2 0.0 20.551198959 32.881900787 8.047709465
362 2 0.0 20.551198959 32.881900787 5.365139961
363 2 0.0 20.551198959 32.881900787 2.682569981
364 2 0.0 20.551198959 32.881900787 0.0
365 2 0.0 20.551198959 8.220479965 8.047709465
366 2 0.0 20.551198959 8.220479965 5.365139961
367 2 0.0 20.551198959 8.220479965 2.682569981
368 2 0.0 20.551198959 8.220479965 0.0
369 2 0.0 20.551198959 4.110239506 8.047709465
370 2 0.0 20.551198959 4.110239506 5.365139961
371 2 0.0 20.551198959 4.110239506 2.682569981
372 2 0.0 20.551198959 4.110239506 0.0
373 2 0.0 20.551198959 0.0 8.047709465
374 2 0.0 20.551198959 0.0 5.365139961
375 2 0.0 20.551198959 0.0 2.682569981
376 2 0.0 20.551200867 0.0 0.0
377 2 0.0 16.440998077 36.992195129 8.047709465
378 2 0.0 16.440998077 36.992195129 5.365139961
379 2 0.0 16.440998077 36.992195129 2.682569981
380 2 0.0 16.440998077 36.992195129 0.0
381 2 0.0 16.440998077 32.881900787 8.047709465
382 2 0.0 16.440998077 32.881900787 5.365139961
383 2 0.0 16.440998077 32.881900787 2.682569981
384 2 0.0 16.440998077 32.881900787 0.0
385 2 0.0 16.440998077 8.220479965 8.047709465
386 2 0.0 16.440998077 8.220479965 5.365139961
387 2 0.0 16.440998077 8.220479965 2.682569981
388 2 0.0 16.440998077 8.220479965 0.0
389 2 0.0 16.440998077 4.110239506 8.047709465
390 2 0.0 16.440998077 4.110239506 5.365139961
391 2 0.0 16.440998077 4.110239506 2.682569981
392 2 0.0 16.440998077 4.110239506 0.0
393 2 0.0 16.440998077 0.0 8.047709465
394 2 0.0 16.440998077 0.0 5.365139961
395 2 0.0 16.440998077 0.0 2.682569981
396 2 0.0 16.440998077 0.0 0.0
397 2 0.0 12.330698967 36.992195129 8.047709465
398 2 0.0 12.330698967 36.992195129 5.365139961
399 2 0.0 12.330698967 36.992195129 2.682569981
400 2 0.0 12.330698967 36.992195129 0.0
401 2 0.0 12.330698967 32.881900787 8.047709465
402 2 0.0 12.330698967 32.881900787 5.365139961
403 2 0.0 12.330698967 32.881900787 2.682569981
404 2 0.0 12.330698967 32.881900787 0.0
405 2 0.0 12.330698967 28.771697998 8.047709465
406 2 0.0 12.330698967 28.771697998 5.365139961
407 2 0.0 12.330698967 28.771697998 2.682569981
408 2 0.0 12.330698967 28.771697998 0.0
409 2 0.0 12.330698967 12.330698967 8.047709465
410 2 0.0 12.330698967 12.330698967 5.365139961
411 2 0.0 12.330698967 12.330698967 2.682569981
412 2 0.0 12.330698967 12.330698967 0.0
413 2 0.0 12.330698967 8.220479965 8.047709465
414 2 0.0 12.330698967 8.220479965 5.365139961
415 2 0.0 12.330698967 8.220479965 2.682569981
416 2 0.0 12.330698967 8.220479965 0.0
417 2 0.0 12.330698967 4.110239506 8.047709465
418 2 0.0 12.330698967 4.110239506 5.365139961
419 2 0.0 12.330698967 4.110239506 2.682569981
420 2 0.0 12.330698967 4.110239506 0.0
421 2 0.0 12.330698967 0.0 8.047709465
422 2 0.0 12.330698967 0.0 5.365139961
423 2 0.0 12.330698967 0.0 2.682569981
424 2 0.0 12.330698967 0.0 0.0
425 2 0.0 8.220479965 36.992195129 8.047709465
426 2 0.0 8.220479965 36.992195129 5.365139961
427 2 0.0 8.220479965 36.992195129 2.682569981
428 2 0.0 8.220479965 36.992195129 0.0
429 2 0.0 8.220479965 32.881900787 8.047709465
430 2 0.0 8.220479965 32.881900787 5.365139961
431 2 0.0 8.220479965 32.881900787 2.682569981
432 2 0.0 8.220479965 32.881900787 0.0
433 2 0.0 8.220479965 28.771697998 8.047709465
434 2 0.0 8.220479965 28.771697998 5.365139961
435 2 0.0 8.220479965 28.771697998 2.682569981
436 2 0.0 8.220479965 28.771697998 0.0
437 2 0.0 8.220479965 24.661397934 8.047709465
438 2 0.0 8.220479965 24.661397934 5.365139961
439 2 0.0 8.220479965 24.661397934 2.682569981
440 2 0.0 8.220479965 24.661397934 0.0
441 2 0.0 8.220479965 20.551198959 8.047709465
442 2 0.0 8.220479965 20.551198959 5.365139961
443 2 0.0 8.220479965 20.551198959 2.682569981
444 2 0.0 8.220479965 20.551198959 0.0
445 2 0.0 8.220479965 16.440998077 8.047709465
446 2 0.0 8.220479965 16.440998077 5.365139961
447 2 0.0 8.220479965 16.440998077 2.682569981
448 2 0.0 8.220479965 16.440998077 0.0
449 2 0.0 8.220479965 12.330698967 8.047709465
450 2 0.0 8.220479965 12.330698967 5.365139961
451 2 0.0 8.220479965 12.330698967 2.682569981
452 2 0.0 8.220479965 12.330698967 0.0
453 2 0.0 8.220479965 8.220479965 8.047709465
454 2 0.0 8.220479965 8.220479965 5.365139961
455 2 0.0 8.220479965 8.220479965 2.682569981
456 2 0.0 8.220479965 8.220479965 0.0
457 2 0.0 8.220479965 4.110239506 8.047709465
458 2 0.0 8.220479965 4.110239506 5.365139961
459 2 0.0 8.220479965 4.110239506 2.682569981
460 2 0.0 8.220479965 4.110239506 0.0
461 2 0.0 8.220479965 0.0 8.047709465
462 2 0.0 8.220479965 0.0 5.365139961
463 2 0.0 8.220479965 0.0 2.682569981
464 2 0.0 8.220479965 0.0 0.0
465 2 0.0 4.110239506 36.992195129 8.047709465
466 2 0.0 4.110239506 36.992195129 5.365139961
467 2 0.0 4.110239506 36.992195129 2.682569981
468 2 0.0 4.110239506 36.992195129 0.0
469 2 0.0 4.110239506 32.881900787 8.047709465
470 2 0.0 4.110239506 32.881900787 5.365139961
471 2 0.0 4.110239506 32.881900787 2.682569981
472 2 0.0 4.110239506 32.881900787 0.0
473 2 0.0 4.110239506 28.771697998 8.047709465
474 2 0.0 4.110239506 28.771697998 5.365139961
475 2 0.0 4.110239506 28.771697998 2.682569981
476 2 0.0 4.110239506 28.771697998 0.0
477 2 0.0 4.110239506 24.661397934 8.047709465
478 2 0.0 4.110239506 24.661397934 5.365139961
479 2 0.0 4.110239506 24.661397934 2.682569981
480 2 0.0 4.110239506 24.661397934 0.0
481 2 0.0 4.110239506 20.551198959 8.047709465
482 2 0.0 4.110239506 20.551198959 5.365139961
483 2 0.0 4.110239506 20.551198959 2.682569981
484 2 0.0 4.110239506 20.551198959 0.0
485 2 0.0 4.110239506 16.440998077 8.047709465
486 2 0.0 4.110239506 16.440998077 5.365139961
487 2 0.0 4.110239506 16.440998077 2.682569981
488 2 0.0 4.110239506 16.440998077 0.0
489 2 0.0 4.110239506 12.330698967 8.047709465
490 2 0.0 4.110239506 12.330698967 5.365139961
491 2 0.0 4.110239506 12.330698967 2.682569981
492 2 0.0 4.110239506 12.330698967 0.0
493 2 0.0 4.110239506 8.220479965 8.047709465
494 2 0.0 4.110239506 8.220479965 5.365139961
495 2 0.0 4.110239506 8.220479965 2.682569981
496 2 0.0 4.110239506 8.220479965 0.0
497 2 0.0 4.110239506 4.110239506 8.047709465
498 2 0.0 4.110239506 4.110239506 5.365139961
499 2 0.0 4.110239506 4.110239506 2.682569981
500 2 0.0 4.110239506 4.110239506 0.0
501 2 0.0 4.110239506 0.0 8.047709465
502 2 0.0 4.110239506 0.0 5.365139961
503 2 0.0 4.110239506 0.0 2.682569981
504 2 0.0 4.110239983 0.0 0.0
505 2 0.0 0.0 36.992195129 8.047709465
506 2 0.0 0.0 36.992195129 5.365139961
507 2 0.0 0.0 36.992195129 2.682569981
508 2 0.0 0.0 36.992195129 0.0
509 2 0.0 0.0 32.881900787 8.047709465
510 2 0.0 0.0 32.881900787 5.365139961
511 2 0.0 0.0 32.881900787 2.682569981
512 2 0.0 0.0 32.881900787 0.0
513 2 0.0 0.0 28.771697998 8.047709465
514 2 0.0 0.0 28.771697998 5.365139961
515 2 0.0 0.0 28.771697998 2.682569981
516 2 0.0 0.0 28.771697998 0.0
517 2 0.0 0.0 24.661397934 8.047709465
518 2 0.0 0.0 24.661397934 5.365139961
519 2 0.0 0.0 24.661397934 2.682569981
520 2 0.0 0.0 24.661397934 0.0
521 2 0.0 0.0 20.551198959 8.047709465
522 2 0.0 0.0 20.551198959 5.365139961
523 2 0.0 0.0 20.551198959 2.682569981
524 2 0.0 0.0 20.551200867 0.0
525 2 0.0 0.0 16.440998077 8.047709465
526 2 0.0 0.0 16.440998077 5.365139961
527 2 0.0 0.0 16.440998077 2.682569981
528 2 0.0 0.0 16.440998077 0.0
529 2 0.0 0.0 12.330698967 8.047709465
530 2 0.0 0.0 12.330698967 5.365139961
531 2 0.0 0.0 12.330698967 2.682569981
532 2 0.0 0.0 12.330698967 0.0
533 2 0.0 0.0 8.220479965 8.047709465
534 2 0.0 0.0 8.220479965 5.365139961
535 2 0.0 0.0 8.220479965 2.682569981
536 2 0.0 0.0 8.220479965 0.0
537 2 0.0 0.0 4.110239506 8.047709465
538 2 0.0 0.0 4.110239506 5.365139961
539 2 0.0 0.0 4.110239506 2.682569981
540 2 0.0 0.0 4.110239983 0.0
541 2 0.0 0.0 0.0 8.047709465
542 2 0.0 0.0 0.0 5.365139961
543 2 0.0 0.0 0.0 2.682569981
544 2 0.0 0.0 0.0 0.0
