LAMMPS data file via write_data, version 12 Dec 2018, timestep = 17000000

6480 atoms
3 atom types

8.2131160499229480e+01 1.2316883950077107e+02 xlo xhi
8.2131160499229480e+01 1.2316883950077107e+02 ylo yhi
8.2131160499229480e+01 1.2316883950077107e+02 zlo zhi

Masses

1 14
2 12
3 1.008

Atoms # charge

4984 2 -5.4282137571340386e-02 8.5211788435158681e+01 8.4209991358938396e+01 8.6149950065053559e+01 0 1 0
4985 2 -6.0486424841909053e-02 8.5011469229170089e+01 8.5615285407088038e+01 8.6337393809942498e+01 0 1 0
5857 3 2.1126620162527537e-01 8.8017764361161937e+01 8.7147945433820468e+01 8.5823543545152802e+01 0 0 0
4983 2 1.0488121716930360e-01 8.4508254668258886e+01 8.3733836631189391e+01 8.5033965198461871e+01 0 1 0
4982 1 -4.7095942487893466e-01 8.4063837093934481e+01 8.4972548814429885e+01 8.4389875775021466e+01 0 1 0
1716 3 5.0759995212602341e-02 8.7155519371045671e+01 8.4403872698437027e+01 8.9162066097248129e+01 0 0 0
1713 2 -5.2559436329103974e-02 8.7471968432061246e+01 8.4068314285097685e+01 9.0128550857547054e+01 0 0 0
1714 2 1.0911081801654246e-01 8.8218760877952747e+01 8.2861225226806198e+01 9.0315653134378550e+01 0 0 0
1574 2 -5.5840743127950745e-02 8.3634578935202569e+01 8.5754177002197451e+01 9.0380611818037863e+01 0 1 0
4986 2 1.0486631405922761e-01 8.4377652533938175e+01 8.6161617453686773e+01 8.5207298547521603e+01 0 1 0
4988 3 4.8404632454709842e-02 8.5280452473227740e+01 8.6167288775401460e+01 8.7210728820687251e+01 0 1 0
4994 2 9.0010463472307331e-02 8.4118463716898603e+01 8.7505145468016437e+01 8.4890502632350106e+01 0 1 0
1712 2 -5.9842401955229850e-02 8.7213948868813858e+01 8.4737347372956023e+01 9.1333794448753366e+01 0 0 0
1725 3 2.1531672132213242e-01 8.8387295383118357e+01 8.3310536323665644e+01 8.7365358707999221e+01 0 0 0
5849 3 2.2675393781360043e-01 8.7463690197594261e+01 8.5881441469746491e+01 8.3758057326164263e+01 0 0 0
1573 2 1.0741901952115890e-01 8.3057073578681496e+01 8.5357264974443353e+01 8.9134753595021209e+01 0 1 0
1577 3 4.0932924817538137e-02 8.3621544074382371e+01 8.6779945919608281e+01 9.0777484625431811e+01 0 1 0
1575 2 -6.9092570714097065e-02 8.4261485149469706e+01 8.4680120310459714e+01 9.1039796917746514e+01 0 1 0
4987 3 4.6416458561265195e-02 8.5738842233146258e+01 8.3574634038433572e+01 8.6840528698540069e+01 0 1 0
1572 1 -4.7109983865380506e-01 8.3303239384482339e+01 8.3931495929677311e+01 8.9090195962526437e+01 0 1 0
1731 3 6.2520533774916884e-02 8.7993097372044076e+01 8.2851372991525281e+01 8.5225809270507739e+01 0 0 0
1715 3 3.7587089388536346e-02 8.6732596239614878e+01 8.5632856319898011e+01 9.1519866714931339e+01 0 0 0
1576 2 1.0706490289846497e-01 8.4156877875030517e+01 8.3508813076891798e+01 9.0226757961698155e+01 0 1 0
5863 3 3.5130838289258365e-02 8.7106386983356032e+01 8.7836729631730108e+01 8.8255020984952594e+01 0 0 0
1710 1 -4.1528716066413673e-01 8.8450144625120146e+01 8.2784430726861828e+01 9.1777003319293144e+01 0 0 0
4989 3 2.3228084649966849e-01 8.3429164605932002e+01 8.5012482978468213e+01 8.3471733187112804e+01 0 1 0
5860 2 -6.5264153897048260e-02 8.7912883908764073e+01 8.8218590254675277e+01 8.8809154804932177e+01 0 0 0
1579 3 2.4505750778419372e-01 8.3011802282436662e+01 8.3262905454388061e+01 8.8242327914714224e+01 0 1 0
4979 3 5.3250644439947828e-02 8.2960153223158372e+01 8.2712548110377980e+01 8.2969387802102588e+01 0 1 0
4996 3 1.8679909988520395e-02 8.3134982817185744e+01 8.7307014659279673e+01 8.2870265755447051e+01 0 1 0
1718 1 -4.4993725327005091e-01 8.8560004428515981e+01 8.2279165258955459e+01 8.7809250328525053e+01 0 0 0
5842 1 -4.4018460638568824e-01 8.8406199479056184e+01 8.5433260963927680e+01 8.3356651810635057e+01 0 0 0
4975 2 1.2714950004298020e-01 8.4157959219316766e+01 8.2361141387718476e+01 8.4739772225752304e+01 0 1 0
3563 3 2.3982607619235585e-01 8.4724993501079879e+01 8.8654015939364101e+01 9.1235262287422870e+01 0 0 0
1581 2 1.0921638688760771e-01 8.2470915778706186e+01 8.6343091935728197e+01 8.8288810382869201e+01 0 1 0
1578 3 5.1871287519911186e-02 8.4780357086363225e+01 8.4706949993961516e+01 9.1926887420659199e+01 0 1 0
3553 3 3.5747373200688555e-02 8.6933404308355648e+01 8.7690389923637866e+01 9.2139253976149689e+01 0 0 0
4993 2 -4.6397153554563045e-02 8.3554083884724847e+01 8.7944926343671213e+01 8.3696042444881854e+01 0 1 0
1568 2 1.0087383362719890e-01 8.4745116634757451e+01 8.2268938602714698e+01 9.0503819673514101e+01 0 1 0
1732 3 8.0219877448123214e-02 8.8756925661976339e+01 8.2524746970655258e+01 8.2723493661520351e+01 0 0 0
5838 3 6.3176275448238423e-02 8.5694666630381917e+01 8.4415340932820257e+01 8.2252210755432984e+01 0 0 0
1580 1 -4.9097934540622656e-01 8.2355625123418207e+01 8.7801111532466678e+01 8.8539767508602409e+01 0 1 0
4990 1 -4.4457058707400909e-01 8.4382854585045692e+01 8.8814743729505409e+01 8.5651138104475152e+01 0 1 0
4997 3 2.3390668716524798e-01 8.4685856841973091e+01 8.8757947418905246e+01 8.6741031881688102e+01 0 1 0
1587 3 2.4473834239323877e-01 8.2594716027517848e+01 8.8402943955990708e+01 8.9434550536593193e+01 0 1 0
6375 3 2.2559497484715435e-01 8.7752927534903364e+01 8.8016302017546849e+01 8.2333611653400112e+01 0 0 0
3159 3 2.6074259483982148e-01 9.3123423806465951e+01 8.5954767127108283e+01 9.2330905850004882e+01 0 0 0
3155 2 -4.6081289232867369e-02 8.9812018855385205e+01 8.5859125181294701e+01 9.2299113781315327e+01 0 0 0
5850 1 -4.2097853327369844e-01 8.9061855403904829e+01 8.6794241850777894e+01 8.6206560662733807e+01 0 0 0
5859 2 1.1912069575658780e-01 8.9295072764307648e+01 8.8079140702982471e+01 8.8435863928646583e+01 0 0 0
5851 2 1.1139703906438536e-01 8.9789213534796772e+01 8.7400474746176911e+01 8.7280829625476329e+01 0 0 0
5846 2 1.2152087853275530e-01 8.9718258277617139e+01 8.5872342435585281e+01 8.3837254099724177e+01 0 0 0
5854 2 8.9650173928583099e-02 9.0027608891618598e+01 8.6488412287818662e+01 8.5065858307138370e+01 0 0 0
3157 3 6.8094994320346033e-02 8.9320755926964026e+01 8.5407577257929958e+01 9.0220986718857120e+01 0 0 0
2061 2 -6.3503962957381685e-02 9.4184126285704465e+01 8.7493792774096079e+01 8.3483036307339034e+01 0 0 0
5853 2 -5.4595987375630407e-02 9.1294198170843700e+01 8.6794978193118126e+01 8.5578808313342918e+01 0 0 0
5852 2 -6.0066965955629020e-02 9.1167230827080530e+01 8.7361568015819230e+01 8.6874625737023763e+01 0 0 0
3142 3 7.3323643845364134e-02 9.0545799066409657e+01 8.3626867037623896e+01 8.5775235762314253e+01 0 0 0
3139 2 -5.1261378819070405e-02 9.1515757546145991e+01 8.3610642288512878e+01 8.5352290072203530e+01 0 0 0
3138 2 -7.1087510498331494e-02 9.1815397425585601e+01 8.3192780049568867e+01 8.4031247348521347e+01 0 0 0
5856 3 6.5943948389608570e-02 9.2205022427595111e+01 8.6661657091057123e+01 8.4925553767219668e+01 0 0 0
3144 1 -4.5840168307475426e-01 9.1660324652715659e+01 8.4854963428864721e+01 8.8237090214781603e+01 0 0 0
3151 3 2.5463534337953486e-01 9.0575791528603418e+01 8.4596539555909899e+01 8.8226481338807872e+01 0 0 0
3140 2 1.0892615047830694e-01 9.2677266938548570e+01 8.4139739215029238e+01 8.5987735646271716e+01 0 0 0
3148 2 1.3706816041706343e-01 9.2735833383266097e+01 8.4659781738134328e+01 8.7305422674559324e+01 0 0 0
3145 2 1.1485770079642178e-01 9.2141380558621975e+01 8.5364043103842505e+01 8.9540822835011028e+01 0 0 0
3153 2 1.2041419039588148e-01 9.1460793551693513e+01 8.5700606884583138e+01 9.0722032937266547e+01 0 0 0
3154 2 -4.9129256032169534e-02 9.0056178610063867e+01 8.5649998321170500e+01 9.0932321722703890e+01 0 0 0
3147 2 -6.2772076209889421e-02 9.3910953581828636e+01 8.5056860036587324e+01 8.8035463327100004e+01 0 0 0
3136 1 -4.3571293644156739e-01 9.3773465554363412e+01 8.3839459175592680e+01 8.5069675187520417e+01 0 0 0
3137 2 1.0951875553233245e-01 9.3222429629257377e+01 8.3330773159873857e+01 8.3817396250992402e+01 0 0 0
3146 2 -5.1137589532117320e-02 9.3535495862910324e+01 8.5558650723214939e+01 8.9299612223075485e+01 0 0 0
3149 3 4.9738532475357616e-02 9.4244852481860818e+01 8.6010534168369219e+01 8.9979043262101271e+01 0 0 0
3150 3 5.0058321677638462e-02 9.4914992051198197e+01 8.4899275865572250e+01 8.7773746710653782e+01 0 0 0
3143 3 2.3548477990164846e-01 9.4668053748082187e+01 8.4554354881988459e+01 8.5047163289824780e+01 0 0 0
2059 2 1.0449576591036618e-01 9.4987575284469060e+01 8.8138489145246922e+01 8.5589214084376977e+01 0 0 0
645 3 5.2809330344531773e-02 9.4215895315687192e+01 8.3258953132471319e+01 8.9958305328069017e+01 0 0 0
642 2 -4.2052238497019487e-02 9.3492141863455430e+01 8.3043159098152373e+01 9.0743122204368262e+01 0 0 0
3141 3 8.5619237008515633e-02 9.1136784696602987e+01 8.2797036022300631e+01 8.3347309247445125e+01 0 0 0
5855 3 9.6157641069000543e-02 9.1960273314689005e+01 8.7628358018183164e+01 8.7528062632468291e+01 0 0 0
3129 2 1.0944462129625167e-01 9.3938489531062572e+01 8.3115564104621100e+01 8.2617776479161591e+01 0 0 0
5845 2 -6.6713408231223612e-02 9.0636691971641341e+01 8.5475090288029236e+01 8.2826245366469436e+01 0 0 0
2060 2 -5.5931256372328313e-02 9.3892268744595214e+01 8.8195403114823449e+01 8.4673130353330365e+01 0 0 0
3152 1 -4.4255255700052543e-01 9.2031753495753208e+01 8.6124375738631457e+01 9.2037164589021458e+01 0 0 0
5858 1 -4.4128160408315725e-01 9.0016350144114853e+01 8.8874937731022797e+01 8.9374477008776310e+01 0 0 0
641 2 8.0775363950552737e-02 9.3653385347911282e+01 8.3308457187182071e+01 9.2100770323350901e+01 0 0 0
5848 3 6.2885487339325488e-02 9.1690338917390704e+01 8.5487010576517676e+01 8.2873989020548251e+01 0 0 0
2064 3 3.7316350763039595e-02 9.3671232642043094e+01 8.7519206325503959e+01 8.2516801340343704e+01 0 0 0
2067 2 1.1165444045623263e-01 9.5048763191786605e+01 8.8718261776266615e+01 8.6856813590220327e+01 0 0 0
2063 3 3.8831131283772087e-02 9.2922887187158082e+01 8.8785119651167747e+01 8.4833383552468220e+01 0 0 0
2062 2 1.0466361800584831e-01 9.5497115921227930e+01 8.6943464818853329e+01 8.3571040323133658e+01 0 0 0
632 1 -4.9565951924851587e-01 9.5634199427730437e+01 8.5011733250293290e+01 9.2091598276990524e+01 0 0 0
3130 2 -3.7573638910409622e-02 9.5365203659119331e+01 8.3279703624730402e+01 8.2435231248127451e+01 0 0 0
643 2 -7.1092353379614295e-02 9.2310997955529402e+01 8.2268553354984505e+01 9.0481924762090060e+01 0 0 0
5670 3 1.5776906631554833e-02 9.5916722802116809e+01 8.2793062125535030e+01 8.8325363557596901e+01 0 0 0
5665 2 -9.2229209710083651e-02 9.6600979878286083e+01 8.2446634556219280e+01 9.0360652729531438e+01 0 0 0
2053 2 -7.6864493085812002e-02 9.7553798979586261e+01 8.5827043137114714e+01 8.2646796664620922e+01 0 0 0
3133 3 6.3774124728000994e-02 9.6090329131700628e+01 8.3412954612740236e+01 8.3237135972335693e+01 0 0 0
5667 3 6.8340601969511139e-02 9.7803914427114492e+01 8.2896351595237149e+01 9.2187384868600788e+01 0 0 0
639 3 2.6728161672884648e-01 9.5835630976475457e+01 8.4833350234879475e+01 9.1019000648738086e+01 0 0 0
5666 2 1.2421424617387911e-01 9.6681682985252792e+01 8.2892252452551034e+01 8.9036355854873349e+01 0 0 0
2058 1 -4.7760094594507052e-01 9.5999195802735429e+01 8.7295679377300189e+01 8.4910830113925940e+01 0 0 0
3787 2 -5.7193836093757514e-02 1.0037011441337198e+02 8.2906244267353529e+01 8.3515455715393088e+01 0 0 0
5662 1 -4.2804168315809005e-01 9.7729849977549804e+01 8.3684595575854601e+01 8.8863798585168340e+01 0 0 0
5669 3 1.9328579495715020e-01 9.7986928023826181e+01 8.4355674113452437e+01 8.7953198930692722e+01 0 0 0
2071 3 3.2616732523278125e-02 9.6829845592887693e+01 8.7743423718811115e+01 8.7847914570456709e+01 0 0 0
2065 3 2.3443920585917213e-01 9.6975293421459881e+01 8.7164949396861147e+01 8.5427833295114297e+01 0 0 0
5657 2 -5.6465014642570283e-02 1.0110159131156801e+02 8.6568978511205245e+01 9.0774610224027640e+01 0 0 0
3805 3 4.6916946625906245e-03 9.8903222583310423e+01 8.6726481750875735e+01 8.7052091634577167e+01 0 0 0
3799 3 2.1212774965510950e-01 1.0022760790221790e+02 8.4940672689415905e+01 8.5569445464184156e+01 0 0 0
3793 2 1.1597705501019021e-01 1.0077888620164721e+02 8.7189305201383377e+01 8.4941548684246840e+01 0 0 0
3792 1 -4.3759248234029158e-01 1.0046533530119584e+02 8.5755619107364055e+01 8.4775958311887976e+01 0 0 0
3802 2 -4.2537209744212774e-02 9.9511427262238072e+01 8.7665544210874188e+01 8.7096814481573546e+01 0 0 0
5659 3 5.0606209961265899e-02 9.9875697505981918e+01 8.6074505596626153e+01 8.8977837037549378e+01 0 0 0
5656 2 -4.8244457990895509e-02 1.0017914514521081e+02 8.5832275266788059e+01 8.9999866421924182e+01 0 0 0
5663 2 5.9928966299034978e-02 9.8484741331078993e+01 8.3957266113644238e+01 9.0391157472827103e+01 0 0 0
5655 2 9.6299579362974244e-02 9.9540440136176429e+01 8.4789722807387420e+01 9.0746613617676246e+01 0 0 0
3796 2 9.6649764461528800e-02 1.0097345407138781e+02 8.5355407561574935e+01 8.3471672675526221e+01 0 0 0
2056 3 7.4796408547726193e-02 9.8077887984023548e+01 8.5752006159095345e+01 8.3550484813043369e+01 0 0 0
3801 2 1.2138912132018126e-01 1.0049152446145649e+02 8.7995033221311274e+01 8.6101962232318257e+01 0 0 0
5660 3 5.3527889372455499e-02 1.0161283283744194e+02 8.7387058659078988e+01 9.0366792265470451e+01 0 0 0
630 3 4.7974267503957495e-02 9.7601107431772931e+01 8.7005965873796754e+01 9.0951671923078393e+01 0 0 0
3790 3 3.0925377655867937e-02 9.9615072194470798e+01 8.2953794625973316e+01 8.4295496241768930e+01 0 0 0
5664 2 -3.0721597906658328e-02 9.7699597395126276e+01 8.3042082114675580e+01 9.1081204376252956e+01 0 0 0
3794 2 -7.0217566478179033e-02 1.0140532143614823e+02 8.7653284563852196e+01 8.3757222480894342e+01 0 0 0
3788 2 8.9854293147137290e-02 1.0101684111106587e+02 8.4019963559171046e+01 8.2941404287901307e+01 0 0 0
3795 2 -4.2958439692768635e-02 1.0153131854271732e+02 8.6514933890106690e+01 8.2892028457633359e+01 0 0 0
3806 3 3.4895582256308844e-02 9.8708409643303995e+01 8.8566475806848928e+01 8.8915862969044952e+01 0 0 0
3803 2 -6.2509809526750865e-02 9.9345232872974293e+01 8.8682232727964802e+01 8.8055188922606106e+01 0 0 0
3797 3 7.3099636831155737e-02 1.0173191578136175e+02 8.8584863478713658e+01 8.3580108639642717e+01 0 0 0
627 2 -5.8104689464812828e-02 9.7767900102901876e+01 8.7424604639183741e+01 9.1946997352439894e+01 0 0 0
5654 1 -4.0067741593804507e-01 1.0020417825475407e+02 8.4948721611206011e+01 9.2119500980686851e+01 0 0 0
5658 2 1.1072478330082669e-01 1.0109097761843985e+02 8.6089399691762708e+01 9.2113626771262275e+01 0 0 0
2068 2 -5.5738855976370183e-02 9.5940955674010965e+01 8.8340704682165537e+01 8.7923979077195412e+01 0 0 0
2054 2 1.0784735183572146e-01 9.6188246214726718e+01 8.6338356112096378e+01 8.2517656619192849e+01 0 0 0
626 2 -4.4912218583632355e-02 9.8679944167866338e+01 8.8451485847113204e+01 9.2310958341120312e+01 0 0 0
629 3 2.6097490868346666e-02 9.9316453484647241e+01 8.8930356781843486e+01 9.1613109262690074e+01 0 0 0
5861 2 -4.5095218659378392e-02 8.7806482126378128e+01 8.9118355475297605e+01 8.9891238288551492e+01 0 0 0
5873 3 2.3566680347637792e-01 8.7299122819908504e+01 9.0842128133388059e+01 9.2099644083569132e+01 0 0 0
2420 3 7.1887495147691549e-02 8.6755095755160042e+01 9.5790362613985167e+01 8.4781494870985057e+01 1 0 1
5009 2 -5.2640199958759820e-02 8.3182321758485372e+01 9.5475962611224361e+01 8.3447414294230057e+01 0 1 0
6381 3 4.7304452749409975e-02 8.6836468896508251e+01 8.9043688372738814e+01 8.4159016782808763e+01 0 0 0
5864 3 1.8648510669910103e-02 8.6904939224595680e+01 8.9470759980005212e+01 9.0312324299131305e+01 0 0 0
3564 3 -2.9906201600693433e-02 8.2269627817090182e+01 8.9674876251946230e+01 9.1441786808294637e+01 0 0 0
3588 3 5.0810529812367326e-02 8.5712995094430426e+01 8.9280801851305014e+01 8.2268901139727149e+01 1 0 1
6395 2 -5.7040123970966250e-02 8.5369312373301042e+01 9.3981633473097844e+01 9.2021073503200199e+01 0 0 0
4992 2 -9.0127649082586109e-02 8.3611094361369155e+01 8.9374824235468822e+01 8.3572018981271498e+01 0 1 0
3556 1 -4.8584994591898584e-01 8.4261129342375071e+01 8.9109782820149121e+01 9.2094302922462631e+01 0 0 0
3575 2 1.2995513598239397e-01 8.8338816177710314e+01 9.2999678407471606e+01 8.2323490253661703e+01 1 0 1
5005 3 2.0000524202881995e-01 8.3181754206451927e+01 9.2278472552527305e+01 8.3349579390144555e+01 0 1 0
6394 2 -6.6879278970153291e-02 8.5792790788122161e+01 9.3167377895422575e+01 9.0958768199264682e+01 0 0 0
6393 2 1.1524191455276293e-01 8.7194072623787491e+01 9.3352558794171671e+01 9.0744971179948209e+01 0 0 0
6378 2 -5.6153070508948674e-02 8.7590737935574623e+01 8.9645703073253344e+01 8.4704225488738103e+01 0 0 0
4991 2 1.1288167826530048e-01 8.4110906055763493e+01 8.9904722045736960e+01 8.4803911643330210e+01 0 1 0
6382 3 5.3897974759593743e-02 8.6363870989396872e+01 9.0247531158740074e+01 8.6493595864225739e+01 0 0 0
5004 3 4.4080342525624885e-02 8.4684874086180557e+01 9.3932640602838461e+01 8.7183710493626151e+01 0 1 0
5002 2 1.1477279430419574e-01 8.3958653287439134e+01 9.3724566537670185e+01 8.5066831655796264e+01 0 1 0
5001 2 -5.9801827117150277e-02 8.4482938607893587e+01 9.3295308955692789e+01 8.6316613259586717e+01 0 1 0
5000 2 -3.3810444936612949e-02 8.4547047921477031e+01 9.1864969687368088e+01 8.6330081821175995e+01 0 1 0
3570 3 6.4161943679278438e-02 8.7275851883024202e+01 9.3248417352810776e+01 8.4972896116451253e+01 1 0 1
6379 2 -5.5496247907091123e-02 8.7303860279637675e+01 9.0291770278314345e+01 8.5950341241298418e+01 0 0 0
3581 3 2.7307877575101552e-01 8.6606042917885389e+01 9.1799124426321953e+01 8.3000810249326236e+01 1 0 1
3567 2 -4.7119443265731642e-02 8.8086386271239178e+01 9.3923051010443089e+01 8.4642502143813118e+01 1 0 1
4999 2 9.1525252248665936e-02 8.4218730632922046e+01 9.1317319544097970e+01 8.5067162488073734e+01 0 1 0
5003 3 2.5663980367774043e-02 8.4740580472239401e+01 9.1222340647342676e+01 8.7180722514811663e+01 0 1 0
4998 1 -4.4267837568207841e-01 8.3823100251815831e+01 9.2471521504550665e+01 8.4302344841989026e+01 0 1 0
6384 1 -4.2258624430521585e-01 8.7361114141657993e+01 9.2050432315865947e+01 8.8481764644339705e+01 0 0 0
6391 3 2.0151446985638147e-01 8.6361609488739504e+01 9.1452794933519655e+01 8.8604993964641380e+01 0 0 0
6385 2 1.1242972371397950e-01 8.7823424344067490e+01 9.2899739674193981e+01 8.9584274848720128e+01 0 0 0
3566 2 7.8536979293215042e-02 8.8673696632102804e+01 9.3843428478332157e+01 8.3380972733392483e+01 1 0 1
6397 3 4.3509117825408172e-02 8.5121163075185251e+01 9.2674563021614560e+01 9.0307898209369370e+01 0 0 0
6380 2 1.1946968989368896e-01 8.8463202196758402e+01 9.0971739782367422e+01 8.6390737256201504e+01 0 0 0
3574 1 -4.7768469540179626e-01 8.7413931937034718e+01 9.1852977902464261e+01 8.2284088400219360e+01 1 0 1
6388 2 1.0798322037274591e-01 8.8470323759183984e+01 9.1790370782113257e+01 8.7537218679053524e+01 0 0 0
3571 3 6.0265974658009744e-02 8.8319859190575443e+01 9.5089523314067705e+01 8.6562080196044889e+01 1 0 1
3568 2 -9.3421923908023147e-02 8.8653454351860248e+01 9.4889650931680933e+01 8.5528337431354316e+01 1 0 1
6392 1 -4.4981243291415007e-01 8.7647792884436129e+01 9.4363044786292065e+01 9.1751203839522148e+01 0 0 0
5866 1 -4.1420897211500884e-01 8.8415624049421282e+01 9.1246551019261744e+01 9.2117226349471238e+01 0 0 0
4995 3 3.6754540027800674e-02 8.3490518633717357e+01 8.9861497137397933e+01 8.2658559847361019e+01 0 1 0
2413 3 2.1436002258519080e-01 8.5725670950051324e+01 9.4860376442494683e+01 8.2647888712711591e+01 1 0 1
5012 3 4.9650600773420511e-02 8.3030082756194730e+01 9.4862353875010541e+01 8.2585538032053975e+01 0 1 0
5010 2 1.0895655145141786e-01 8.3686114245161221e+01 9.5054358990389886e+01 8.4705622702992116e+01 0 1 0
3560 2 1.5146316964664527e-01 8.3034866611682858e+01 8.9746509093625136e+01 9.2226949795029128e+01 0 0 0
6377 2 1.4081041206997730e-01 8.8899388763431531e+01 8.9944926591439085e+01 8.4259925402818894e+01 0 0 0
1594 3 3.2963896083898908e-02 8.2457209459956957e+01 9.0566521987280822e+01 8.8971749022903140e+01 0 1 0
6398 3 2.4927496452115679e-02 8.4350087437241655e+01 9.4116902191388363e+01 9.2270995023098450e+01 0 0 0
322 3 9.0800067440198709e-02 9.5700794044346935e+01 9.5622905980552900e+01 8.9023216957028467e+01 0 0 1
5865 3 2.3058873033577013e-01 9.1133189439767719e+01 8.9191716564102336e+01 8.9428232246312135e+01 0 0 0
5862 2 1.1107240821372570e-01 8.9102395990481895e+01 8.9567492095439619e+01 9.0302375751547160e+01 0 0 0
3565 1 -5.0465452499361929e-01 8.9573230618348944e+01 9.5257766399063627e+01 8.3407199880384965e+01 1 0 1
3723 3 3.4271849291355357e-02 9.0650446750913517e+01 9.5196698048008443e+01 8.6718044331649438e+01 0 0 1
3722 2 1.5499478877254155e-01 9.2433646118044322e+01 9.5448260623060051e+01 8.9515584972811553e+01 0 0 1
6370 2 -5.8018964867259708e-02 9.0724347858832914e+01 8.9528744491629638e+01 8.2531289946526925e+01 0 0 0
5870 2 1.1307898874971115e-01 8.9366204759180491e+01 9.0458318035434502e+01 9.1367284566795462e+01 0 0 0
6369 2 1.1506956700671918e-01 8.9441754912471851e+01 8.9362254428652989e+01 8.3066044524956467e+01 0 0 0
5869 2 -6.4763790372459162e-02 9.0654233936932513e+01 9.0697916932410479e+01 9.1978960686141519e+01 0 0 0
2066 1 -4.6958600704316106e-01 9.4005668141246744e+01 8.9510962967696116e+01 8.7539750632659789e+01 0 0 0
6373 3 8.5413705749504687e-02 9.1436087404608301e+01 9.0189411227292723e+01 8.3023860339217109e+01 0 0 0
6386 2 -4.4662726072617620e-02 8.9153597215301176e+01 9.3251335832464463e+01 8.9196940688143741e+01 0 0 0
2070 2 1.1777549526134093e-01 9.4498326250113692e+01 8.9899785935136578e+01 8.8819971747652147e+01 0 0 0
2073 3 2.3015319070006121e-01 9.3120001518718453e+01 9.0043053231142522e+01 8.7099772095246479e+01 0 0 0
6376 1 -4.8182683359137035e-01 8.9505413370585472e+01 9.0651049809912365e+01 8.5375593309466339e+01 0 0 0
6387 2 -6.0042103844302933e-02 8.9531626541428722e+01 9.2626473618407758e+01 8.7965542181491131e+01 0 0 0
6389 3 5.6111567155265878e-02 8.9857375457430805e+01 9.3777230349448317e+01 8.9862975977106032e+01 0 0 0
2078 2 9.9301735077377107e-02 9.3959741330963766e+01 9.0867686162139194e+01 8.9736435034683737e+01 0 0 0
6383 3 2.6891403111227119e-01 9.0556168876610414e+01 9.0808434275889397e+01 8.5575891160041579e+01 0 0 0
6390 3 6.2443571943624404e-02 9.0506465160748476e+01 9.2713978801452427e+01 8.7470285248831729e+01 0 0 0
2080 3 4.1780187165612229e-02 9.2097626762611100e+01 9.1304527933657539e+01 8.8723668962791209e+01 0 0 0
3710 1 -4.7971256557161479e-01 9.2296487639348257e+01 9.3371916892792058e+01 8.4951747685135146e+01 0 0 1
2079 3 6.7443479196361289e-02 9.1476150005731867e+01 9.2787068708181891e+01 9.0807068961220921e+01 0 0 0
3711 2 1.0297430357205123e-01 9.2783241173547907e+01 9.3481184344403275e+01 8.6353036427585423e+01 0 0 1
3714 2 1.0895738233068822e-01 9.3034893326945848e+01 9.2411052222868904e+01 8.4164166411995225e+01 0 0 1
3716 3 7.1286602258307769e-02 9.4603880295234177e+01 9.1042012082029132e+01 8.4902143320602775e+01 0 0 1
3713 2 -5.8804653589594802e-02 9.3960205672387445e+01 9.1871900806961378e+01 8.5123457415665953e+01 0 0 1
3715 3 8.1571475036521651e-02 9.4393378511300469e+01 9.2257543141073924e+01 8.7273377472309605e+01 0 0 1
3712 2 -6.3523680690207182e-02 9.3793902307480039e+01 9.2506707260720475e+01 8.6386240388417718e+01 0 0 1
2076 2 -6.7352902139669893e-02 9.2411002500491364e+01 9.2380229907324079e+01 9.0611617905138843e+01 0 0 0
2077 2 -6.3992698798368011e-02 9.2686207833898180e+01 9.1487537627610834e+01 8.9581421885687334e+01 0 0 0
3725 3 2.7576264622458740e-01 9.3961144714694896e+01 9.3942644783105038e+01 8.9234229999137142e+01 0 0 1
2074 1 -4.5367521145838946e-01 9.4473687504719251e+01 9.1366303097367719e+01 9.1001300260351968e+01 0 0 0
3706 2 1.0249257075948329e-01 9.2975162324594692e+01 9.2035528639003076e+01 8.2801144584304112e+01 0 0 1
3717 3 2.7111154221704259e-01 9.1354528109689241e+01 9.3919072635342502e+01 8.4644503693489099e+01 0 0 1
3719 2 9.0938342816821338e-02 9.2463101092539915e+01 9.4361185771033803e+01 8.7412960609826115e+01 0 0 1
3718 1 -4.8305197042529208e-01 9.3150994766222055e+01 9.4570521526397670e+01 8.8801649808948696e+01 0 0 1
5872 3 7.2688623207513098e-02 9.1591744684269912e+01 9.0247067699052906e+01 9.1663364644685771e+01 0 0 0
2075 2 1.0251162971630770e-01 9.3583734426043264e+01 9.2416029791560732e+01 9.1463108541158817e+01 0 0 0
2081 3 2.2193989861794747e-01 9.5555495521707755e+01 9.1278968621962676e+01 9.1340319712356873e+01 0 0 0
3720 2 -5.5160248384542865e-02 9.1354993622742825e+01 9.5202986990747462e+01 8.7507949151616842e+01 0 0 1
3569 2 1.4454060370619709e-01 8.9481862697997485e+01 9.5662872970071930e+01 8.4696738688404054e+01 1 0 1
3709 3 2.4830244513721056e-01 9.4514900442881228e+01 9.0421108779004484e+01 8.2547998295374768e+01 0 0 1
2069 2 -6.1998155121506866e-02 9.5632984986146454e+01 8.9071814908812172e+01 8.9100038913528920e+01 0 0 0
3726 3 -7.7725754473312487e-03 9.2659655945250918e+01 9.5744257169433780e+01 9.0495959875218560e+01 0 0 1
2291 3 6.8958460963017748e-02 9.3107410652277451e+01 9.5266675742367227e+01 8.2333418953879985e+01 0 0 1
3807 3 2.2185700706554085e-01 1.0165296077924037e+02 8.9995718471111346e+01 8.5967874727083924e+01 0 0 0
4637 2 -5.7999313637317085e-02 9.9290019030705565e+01 9.5254712755794060e+01 8.6693186995907908e+01 0 0 1
3815 3 2.0009883478030052e-01 9.9075405213226205e+01 9.0534014256309760e+01 9.0287924531087370e+01 0 0 0
3813 3 4.0208371330248696e-02 1.0121118019493025e+02 9.4160422357403476e+01 8.8869166459310719e+01 0 0 0
3809 2 1.1233161792938699e-01 9.9906854738703103e+01 9.2710656263166399e+01 8.9988934348297306e+01 0 0 0
3814 3 2.4439173866492209e-02 1.0157383673934562e+02 9.2154821357518671e+01 8.7136592514697767e+01 0 0 0
3821 3 3.2333733303311116e-02 9.8160344841473233e+01 9.1866056020292248e+01 9.2090002938069844e+01 0 0 0
316 1 -4.6500517486456333e-01 9.7063223252161166e+01 9.2663260712936790e+01 8.8920015275281003e+01 0 0 1
3811 2 -5.7291287881461532e-02 1.0104129827004033e+02 9.2119438877543729e+01 8.8036163758128524e+01 0 0 0
4640 3 5.4754461331802645e-02 9.9466039277437702e+01 9.5067606804671200e+01 8.7774066665271349e+01 0 0 1
321 3 7.5018183264529997e-02 9.6184913288590849e+01 9.4964608081122719e+01 8.6539271248603782e+01 0 0 1
3818 2 -5.8473641881713133e-02 9.8410678695166951e+01 9.2917487701738906e+01 9.1975629934557247e+01 0 0 0
4656 3 3.9865336423748364e-02 1.0101599356730001e+02 9.0385161975261283e+01 8.2649418594429818e+01 0 0 1
3810 2 -5.9064531018452965e-02 1.0077618405833712e+02 9.3169777647140123e+01 8.8938834553527641e+01 0 0 0
3812 2 1.0544718289984756e-01 1.0038920023033538e+02 9.0927302526297140e+01 8.8478049853798353e+01 0 0 0
3823 3 2.1811938923992871e-01 9.9433069944731614e+01 9.5694375173761827e+01 9.0372645248916641e+01 0 0 0
312 2 1.1662767380880973e-01 9.7343378654722258e+01 9.1483233507957749e+01 8.3971572450557247e+01 0 0 1
3820 2 1.0329736095966155e-01 9.8381642321472810e+01 9.5255109050069663e+01 9.2240667902415666e+01 0 0 0
319 2 -1.0923118413610709e-01 9.6098453264773283e+01 9.4680298288126963e+01 8.8754417798062050e+01 0 0 1
318 2 -4.1696154785640684e-02 9.6373530028075251e+01 9.4324946684151016e+01 8.7385199096953244e+01 0 0 1
3816 1 -4.5190882557500905e-01 9.9337486215554520e+01 9.4924813198084237e+01 9.1202976829477223e+01 0 0 0
3817 2 1.0750790982151510e-01 9.9315858747475005e+01 9.3467288007273027e+01 9.1007022144729262e+01 0 0 0
313 3 7.7578936709575219e-02 9.7974664481009910e+01 9.0378838528991224e+01 8.7146135280809801e+01 0 0 1
311 2 -5.5089625346805476e-02 9.7675639282649669e+01 9.0458308271906859e+01 8.4908733643073987e+01 0 0 1
310 2 -5.7237583188653379e-02 9.7588594794128426e+01 9.0889821196903853e+01 8.6261510461955339e+01 0 0 1
314 3 7.4134311412530712e-02 9.8108218964450160e+01 8.9540542320697483e+01 8.4568548492148267e+01 0 0 1
324 3 1.1299822642456412e-02 9.6390106329662657e+01 9.3704116102034860e+01 9.0713487174849249e+01 0 0 1
4636 2 -5.2718428374226037e-02 9.9677415867228476e+01 9.4424533937296516e+01 8.5625849572865292e+01 0 0 1
3804 2 9.6122113639003609e-02 1.0022407972213199e+02 8.9740500728424365e+01 8.7720498037627436e+01 0 0 0
4642 1 -4.3400938938856964e-01 9.9969846568128730e+01 9.3005159757790068e+01 8.2906525801865328e+01 0 0 1
315 3 2.5398379066596266e-01 9.6767867372076253e+01 9.3606754339968035e+01 8.4321755859309491e+01 0 0 1
323 3 2.7652275079334315e-01 9.7569074973921275e+01 9.1754839082244416e+01 8.9284891649679381e+01 0 0 1
3808 1 -4.7806372141061920e-01 9.9720092301147957e+01 9.1279096416421112e+01 8.9738558207340546e+01 0 0 0
4643 2 1.0392271580740117e-01 9.9370357893252958e+01 9.4326747235403204e+01 8.3176794028372882e+01 0 0 1
4639 3 5.3617807522850891e-02 1.0017850878304563e+02 9.3471283021376820e+01 8.5733111576062157e+01 0 0 1
317 2 9.1924317743471498e-02 9.6843043928788887e+01 9.2996042127437761e+01 8.7348639654450636e+01 0 0 1
309 2 1.3327498423705703e-01 9.7086328940196623e+01 9.2250578379401958e+01 8.6209109122950352e+01 0 0 1
320 2 1.3458419854322612e-01 9.6526006445880896e+01 9.3704069614206176e+01 8.9618106999940238e+01 0 0 1
3800 1 -4.5078616600824134e-01 1.0085965161880804e+02 8.9331543596948634e+01 8.6422815851107515e+01 0 0 0
4635 2 9.7442370292790972e-02 9.9245852892372923e+01 9.4996428662959374e+01 8.4381390169832585e+01 0 0 1
2072 3 3.4949563863208979e-02 9.6240528187374338e+01 8.9049499610738806e+01 8.9995670796210604e+01 0 0 0
304 2 1.1952193589908001e-01 9.7391119504923964e+01 9.1425020479998850e+01 8.2555715087939078e+01 0 0 1
4649 3 2.2153361778971734e-01 1.0043168512352550e+02 9.2305543791245555e+01 8.3683825976886752e+01 0 0 1
308 1 -4.5996252227702028e-01 9.6947099768964534e+01 9.2614970443006584e+01 8.4791981651023420e+01 0 0 1
1704 2 -5.1279149555729965e-02 8.7867866920714178e+01 8.3371562397900732e+01 9.4918195734673660e+01 0 0 0
1702 1 -4.7381606173727714e-01 8.6583250059717983e+01 8.5152183173110402e+01 9.4394150821813781e+01 0 0 0
1703 2 1.0728337917840089e-01 8.7532727902280300e+01 8.4167448412893791e+01 9.3788317022050535e+01 0 0 0
1709 3 2.5692394211294728e-01 8.5891880957545439e+01 8.5760233887989060e+01 9.3815177361706617e+01 0 0 0
1694 1 -4.7891653719623478e-01 8.5643616822046368e+01 8.5536771202780400e+01 9.8224940639568885e+01 0 0 0