# LAMMPS data file written by Ovito Basic 3.0.0-dev791
14 atoms
2 atom types
0.0 4.3232936859 xlo xhi
0.0 7.4881644249 ylo yhi
0.0 3.7453680038 zlo zhi

Atoms  # charge

1 1 0.0 0.0 0.0 0.0
2 1 0.0 2.161646843 3.744082212 0.0
3 2 0.0 0.721017301 1.248838663 1.872684002
4 2 0.0 2.882664204 4.992920876 1.872684002
5 2 0.0 2.881259203 0.0 1.872684002
6 2 0.0 0.71961236 3.744082212 1.872684002
7 2 0.0 2.882664204 2.495243788 1.872684002
8 2 0.0 0.721017241 6.239326 1.872684002
9 2 0.0 1.440629601 2.495243788 1.872684002
10 2 0.0 3.602276325 6.239326 1.872684002
11 2 0.0 1.442034602 0.0 1.872684002
12 2 0.0 3.603681326 3.744082212 1.872684002
13 2 0.0 3.602276325 1.248838663 1.872684002
14 2 0.0 1.440629601 4.992920876 1.872684002
