#Input file for lammps
 
3550 atoms
3 atom types
 
0.0 164 xlo xhi
0.0 164 ylo yhi
0.0 164 zlo zhi
 
Masses
 
1 1.008
2 12
3 14
 
Atoms
 
      1 1 0       68.407      81.3696      60.6467
      2 2 0      68.6021      81.9175       61.573
      3 1 0      67.6649      81.8767      62.1374
      4 2 0       69.761        81.19      62.3958
      5 1 0      69.5165      80.1441      62.5735
      6 1 0      70.6866      81.1572      61.8327
      7 2 0      69.9634      81.9197      63.7267
      8 1 0        69.04      81.9108      64.3107
      9 2 0      71.0988      81.1771      64.5076
     10 1 0      70.8462      80.1328      64.6768
     11 1 0      72.0184      81.1505      63.9312
     12 2 0      71.3124      81.9288      65.8624
     13 1 0        70.39      81.9234      66.4507
     14 2 0      72.4466      81.1755      66.6301
     15 1 0      72.1897       80.131      66.7949
     16 1 0      73.3641      81.1478      66.0498
     17 2 0      72.6602      81.9276      67.9847
     18 1 0      71.7365      81.9228      68.5721
     19 2 0      73.7953      81.1715       68.748
     20 1 0      73.5361      80.1273      68.9137
     21 1 0      74.7119      81.1433      68.1677
     22 2 0      74.0063      81.9223      70.1017
     23 1 0       73.081      81.9208      70.6835
     24 2 0      75.1391       81.163      70.8729
     25 1 0      74.8874      80.1227      71.0414
     26 1 0       76.058      81.1372      70.2964
     27 2 0      74.4245      83.3058      69.8837
     28 3 0      74.7584      84.4094      69.7101
     29 2 0      73.0552      83.3145      67.7274
     30 3 0      73.3686      84.4141      67.5232
     31 2 0      71.7108      83.3151      65.6116
     32 3 0      72.0272      84.4158      65.4127
     33 2 0      70.3719      83.3156      63.4975
     34 3 0      70.6934      84.4147      63.3171
     35 2 0      68.9991      83.3402      61.2762
     36 3 0      69.3033      84.4311      61.0487
     37 2 0       75.339      81.9384      72.2189
     38 1 0      74.4204       81.936      72.8122
     39 2 0      76.4775      81.1892      72.9846
     40 1 0      76.2212      80.1429      73.1486
     41 1 0      77.3941       81.159      72.4047
     42 2 0      76.6857      81.9371      74.3397
     43 1 0      75.7634      81.9277      74.9263
     44 2 0      77.8217      81.1791      75.1026
     45 1 0      77.5653      80.1342      75.2661
     46 1 0      78.7385      81.1521      74.5212
     47 2 0      78.0346      81.9315      76.4568
     48 1 0      77.1112      81.9256      77.0435
     49 2 0      79.1691      81.1757      77.2215
     50 1 0      78.9108      80.1314      77.3849
     51 1 0      80.0856      81.1485      76.6396
     52 2 0      79.3807      81.9295      78.5756
     53 1 0       78.457      81.9241      79.1618
     54 2 0      80.5166      81.1725      79.3386
     55 1 0      80.2565      80.1281       79.503
     56 1 0      81.4326      81.1444      78.7569
     57 2 0      80.7272      81.9235      80.6914
     58 1 0      79.8008      81.9222      81.2732
     59 2 0        81.86      81.1636      81.4626
     60 1 0      81.6078      80.1244      81.6308
     61 1 0      82.7783      81.1386      80.8857
     62 2 0       81.145      83.3071      80.4728
     63 3 0      81.4784      84.4107      80.2988
     64 2 0      79.7761      83.3159      78.3177
     65 3 0      80.0895      84.4154      78.1132
     66 2 0      78.4316      83.3177      76.2024
     67 3 0      78.7467      84.4182      76.0004
     68 2 0      77.0948      83.3239      74.1035
     69 3 0      77.4191      84.4232      73.9166
     70 2 0      75.7036      83.3156      71.8846
     71 3 0       75.989      84.4122      71.6108
     72 2 0      82.0591      81.9397      82.8079
     73 1 0      81.1407      81.9372      83.4018
     74 2 0      83.1978      81.1907      83.5743
     75 1 0      82.9416      80.1441      83.7381
     76 1 0      84.1145      81.1602      82.9943
     77 2 0      83.4062      81.9384       84.929
     78 1 0      82.4836       81.929      85.5158
     79 2 0      84.5424      81.1804      85.6928
     80 1 0      84.2856      80.1353      85.8555
     81 1 0      85.4588      81.1534      85.1106
     82 2 0      84.7548      81.9326      87.0464
     83 1 0      83.8318      81.9268       87.633
     84 2 0      85.8893       81.177      87.8106
     85 1 0      85.6312      80.1325      87.9745
     86 1 0       86.806      81.1497      87.2292
     87 2 0      86.1009       81.931       89.165
     88 1 0      85.1776      81.9254      89.7513
     89 2 0      87.2372      81.1737      89.9284
     90 1 0      86.9769      80.1295      90.0926
     91 1 0      88.1529      81.1457      89.3465
     92 2 0      87.4477      81.9245      91.2806
     93 1 0       86.521      81.9235       91.863
     94 2 0      88.5803      81.1646      92.0519
     95 1 0      88.3282      80.1256      92.2202
     96 1 0      89.4987      81.1398      91.4752
     97 2 0      87.8653      83.3085      91.0621
     98 3 0      88.1987      84.4122      90.8882
     99 2 0      86.4961      83.3172      88.9069
    100 3 0      86.8096      84.4167      88.7022
    101 2 0      85.1519      83.3191       86.792
    102 3 0       85.467      84.4195      86.5899
    103 2 0      83.8155      83.3251      84.6935
    104 3 0        84.14      84.4245       84.507
    105 2 0      82.4244      83.3169      82.4745
    106 3 0      82.7099      84.4134       82.201
    107 2 0      88.7799      81.9408      93.3972
    108 1 0      87.8607      81.9385      93.9916
    109 2 0      89.9181      81.1915      94.1634
    110 1 0       89.662      80.1454      94.3275
    111 1 0      90.8348      81.1613      93.5837
    112 2 0      90.1271      81.9392      95.5182
    113 1 0      89.2035      81.9302      96.1055
    114 2 0      91.2625      81.1814      96.2816
    115 1 0       91.006      80.1367      96.4448
    116 1 0      92.1792      81.1546      95.6999
    117 2 0      91.4752      81.9341      97.6358
    118 1 0       90.552       81.928      98.2222
    119 2 0      92.6101      81.1781      98.4008
    120 1 0      92.3514      80.1337      98.5637
    121 1 0      93.5263      81.1508      97.8183
    122 2 0      92.8217      81.9317      99.7544
    123 1 0      91.8976      81.9265      100.341
    124 2 0      93.9573      81.1748      100.517
    125 1 0      93.6972      80.1305      100.682
    126 1 0      94.8733      81.1468      99.9357
    127 2 0      94.1677      81.9257      101.871
    128 1 0       93.242      81.9244      102.452
    129 2 0         95.3      81.1669      102.641
    130 1 0      95.0486      80.1262       102.81
    131 1 0      96.2193      81.1408      102.065
    132 2 0      94.5856      83.3095      101.652
    133 3 0      94.9195      84.4131      101.478
    134 2 0       93.217      83.3184      99.4966
    135 3 0      93.5304      84.4179      99.2921
    136 2 0      91.8725      83.3201      97.3816
    137 3 0      92.1879      84.4206      97.1798
    138 2 0      90.5356      83.3263      95.2823
    139 3 0      90.8596      84.4257      95.0953
    140 2 0      89.1446       83.318      93.0635
    141 3 0      89.4305      84.4147      92.7906
    142 1 0      95.4386      81.6672      103.599
    143 1 0      87.8491      10.0226        123.1
    144 2 0      88.7862      10.1162      122.543
    145 1 0      88.9673      9.12676      122.111
    146 2 0      88.6154      11.1928      121.377
    147 1 0      87.7724      10.9429      120.735
    148 1 0      88.3698      12.1714      121.773
    149 2 0      89.9068      11.2505      120.556
    150 1 0      90.1261      10.2724      120.121
    151 2 0      89.7011      12.3082      119.421
    152 1 0       88.855      12.0509      118.787
    153 1 0      89.4543      13.2821      119.832
    154 2 0      91.0239      12.3742      118.589
    155 1 0      91.2485      11.3967      118.152
    156 2 0      90.8025      13.4322       117.46
    157 1 0      89.9538      13.1712      116.831
    158 1 0      90.5527      14.4044      117.874
    159 2 0      92.1256      13.4983      116.628
    160 1 0      92.3501      12.5196      116.192
    161 2 0      91.8997      14.5577      115.502
    162 1 0      91.0515      14.2942      114.872
    163 1 0      91.6494       15.529      115.916
    164 2 0      93.2211      14.6212      114.671
    165 1 0      93.4457      13.6415      114.241
    166 2 0      92.9959      15.6775      113.536
    167 1 0       92.153      15.4213      112.905
    168 1 0      92.7497      16.6507      113.948
    169 2 0      94.3499      15.0444      115.497
    170 3 0      95.2507      15.3823      116.156
    171 2 0      93.2372      13.9024      117.492
    172 3 0      94.1184       14.223      118.178
    173 2 0      92.1384       12.781      119.447
    174 3 0      93.0232      13.1041      120.128
    175 2 0      91.0406       11.665      121.399
    176 3 0      91.9333      11.9913      122.063
    177 2 0      89.9102      10.5259      123.459
    178 3 0      90.7721        10.84      124.161
    179 2 0      94.3345      15.7306      112.724
    180 1 0      94.5643      14.7563      112.284
    181 2 0       94.116       16.793      111.598
    182 1 0      93.2652      16.5327      110.969
    183 1 0       93.864      17.7643      112.011
    184 2 0      95.4352      16.8538      110.765
    185 1 0      95.6554      15.8765      110.327
    186 2 0      95.2075       17.914      109.638
    187 1 0      94.3578      17.6537       109.01
    188 1 0      94.9577      18.8857      110.053
    189 2 0      96.5306      17.9795      108.807
    190 1 0      96.7539      17.0011      108.371
    191 2 0      96.3056      19.0381      107.679
    192 1 0      95.4562      18.7758      107.051
    193 1 0      96.0553      20.0094      108.095
    194 2 0      97.6298      19.1022      106.849
    195 1 0      97.8532      18.1236      106.414
    196 2 0       97.403      20.1624      105.722
    197 1 0       96.554      19.8982      105.094
    198 1 0       97.152      21.1332      106.138
    199 2 0      98.7241      20.2257      104.892
    200 1 0      98.9487      19.2448      104.463
    201 2 0      98.4984       21.282      103.757
    202 1 0      97.6562      21.0252      103.127
    203 1 0      98.2527      22.2546      104.169
    204 2 0      99.8528      20.6485      105.719
    205 3 0      100.753       20.986      106.378
    206 2 0      98.7407      19.5068      107.714
    207 3 0      99.6217      19.8274      108.399
    208 2 0      97.6431      18.3853      109.668
    209 3 0      98.5263      18.7074      110.352
    210 2 0      96.5578      17.2697       111.61
    211 3 0      97.4477      17.5994      112.279
    212 2 0      95.3986      16.1125      113.653
    213 3 0      96.2421      16.4124        114.4
    214 2 0      99.8372      21.3343      102.946
    215 1 0      100.067      20.3601      102.506
    216 2 0      99.6192      22.3969       101.82
    217 1 0      98.7681      22.1367      101.191
    218 1 0      99.3669      23.3683      102.233
    219 2 0      100.938      22.4578      100.987
    220 1 0      101.158      21.4803      100.549
    221 2 0      100.711      23.5183      99.8588
    222 1 0      99.8606      23.2576      99.2313
    223 1 0      100.461      24.4895      100.275
    224 2 0      102.033      23.5832      99.0283
    225 1 0      102.257      22.6053      98.5927
    226 2 0      101.808      24.6419      97.9012
    227 1 0      100.959      24.3798      97.2731
    228 1 0      101.558      25.6134      98.3168
    229 2 0      103.133       24.706       97.071
    230 1 0      103.356      23.7277      96.6357
    231 2 0      102.906      25.7665      95.9436
    232 1 0      102.057      25.5022      95.3156
    233 1 0      102.655      26.7371      96.3594
    234 2 0      104.227      25.8298      95.1139
    235 1 0      104.452      24.8486      94.6845
    236 2 0      104.001      26.8859      93.9787
    237 1 0      103.159      26.6292      93.3488
    238 1 0      103.756      27.8585      94.3912
    239 2 0      105.356      26.2525       95.941
    240 3 0      106.256      26.5898      96.6003
    241 2 0      104.244      25.1103      97.9355
    242 3 0      105.124      25.4312      98.6212
    243 2 0      103.146      23.9891      99.8897
    244 3 0      104.029      24.3113      100.573
    245 2 0      102.061      22.8739      101.831
    246 3 0      102.951      23.2038        102.5
    247 2 0      100.902      21.7168      103.874
    248 3 0      101.745      22.0168      104.621
    249 2 0       105.34      26.9387      93.1681
    250 1 0       105.57      25.9637      92.7271
    251 2 0      105.121      28.0008       92.042
    252 1 0      104.271      27.7406      91.4128
    253 1 0       104.87      28.9722      92.4547
    254 2 0      106.441      28.0623      91.2087
    255 1 0      106.661      27.0838      90.7709
    256 2 0      106.213       29.122      90.0811
    257 1 0      105.364      28.8615      89.4533
    258 1 0      105.963      30.0935      90.4972
    259 2 0      107.537      29.1872      89.2503
    260 1 0       107.76      28.2091      88.8147
    261 2 0      107.312      30.2462      88.1223
    262 1 0      106.462      29.9836      87.4951
    263 1 0      107.061      31.2173      88.5389
    264 2 0      108.635      30.3103      87.2926
    265 1 0      108.859      29.3313      86.8576
    266 2 0      108.408      31.3703      86.1658
    267 1 0       107.56      31.1061      85.5374
    268 1 0      108.158      32.3411      86.5814
    269 2 0       109.73      31.4333      85.3352
    270 1 0      109.954      30.4532      84.9065
    271 2 0      109.505      32.4892      84.2013
    272 1 0      108.661      32.2332      83.5703
    273 1 0      109.258      33.4627       84.613
    274 2 0      110.858      31.8563      86.1626
    275 3 0      111.759      32.1942      86.8213
    276 2 0      109.746      30.7149      88.1571
    277 3 0      110.628      31.0355      88.8426
    278 2 0      108.649      29.5933      90.1112
    279 3 0      109.532      29.9157      90.7947
    280 2 0      107.563      28.4777      92.0532
    281 3 0      108.453      28.8071      92.7225
    282 2 0      106.404      27.3206      94.0967
    283 3 0      107.248      27.6209      94.8426
    284 1 0      110.412      32.5238      83.5986
    285 1 0       4.6748      43.7181      149.632
    286 2 0      4.68408      44.8031      149.494
    287 1 0        5.095      45.2106      150.423
    288 2 0      5.63597      45.1828       148.27
    289 1 0      6.63432      44.7715      148.409
    290 1 0      5.28893      44.7371      147.344
    291 2 0      5.70452      46.7072      148.143
    292 1 0      6.09763      47.1488      149.062
    293 2 0      6.64909       47.042       146.94
    294 1 0      7.64226      46.6239      147.088
    295 1 0      6.29019       46.588      146.022
    296 2 0      6.71061      48.5988      146.805
    297 1 0      7.10302       49.046      147.723
    298 2 0      7.65735      48.9167      145.603
    299 1 0       8.6487      48.4946      145.754
    300 1 0      7.29757      48.4587      144.686
    301 2 0      7.71845      50.4737      145.467
    302 1 0      8.10996      50.9203      146.387
    303 2 0      8.66516      50.7864      144.263
    304 1 0      9.65697      50.3651      144.418
    305 1 0      8.30588      50.3282      143.348
    306 2 0      8.72717      52.3418      144.131
    307 1 0      9.11304      52.7854      145.052
    308 2 0      9.68095      52.6594      142.929
    309 1 0      10.6703      52.2429      143.076
    310 1 0      9.32139      52.2057      142.011
    311 2 0      7.40762      52.9054      143.852
    312 3 0      6.35514      53.3553       143.63
    313 2 0      6.37724      51.0045      145.212
    314 3 0      5.31373      51.4251      145.009
    315 2 0      5.37301       49.135      146.546
    316 3 0      4.31114      49.5609      146.341
    317 2 0      4.36934      47.2673      147.875
    318 3 0      3.31812      47.7083      147.665
    319 2 0      3.29155      45.3193       149.24
    320 3 0      2.22386      45.7151      149.046
    321 2 0      9.71893      54.2206      142.809
    322 1 0      10.1111      54.6738      143.724
    323 2 0      10.6608      54.5391      141.603
    324 1 0      11.6533      54.1153      141.754
    325 1 0      10.3034      54.0801      140.687
    326 2 0      10.7262       56.094      141.472
    327 1 0      11.1211      56.5376       142.39
    328 2 0      11.6742      56.4054      140.268
    329 1 0      12.6652       55.982      140.419
    330 1 0      11.3133      55.9468      139.352
    331 2 0       11.735      57.9622      140.133
    332 1 0       12.127      58.4077      141.052
    333 2 0      12.6822      58.2762       138.93
    334 1 0      13.6728      57.8529      139.083
    335 1 0      12.3212       57.817      138.015
    336 2 0      12.7418      59.8335      138.797
    337 1 0      13.1331      60.2788      139.716
    338 2 0       13.689      60.1455      137.592
    339 1 0      14.6804       59.723      137.747
    340 1 0       13.329       59.686      136.677
    341 2 0      13.7504      61.7003       137.46
    342 1 0      14.1362      62.1438      138.382
    343 2 0      14.7046      62.0175      136.258
    344 1 0       15.693      61.6013      136.406
    345 1 0      14.3443      61.5639      135.341
    346 2 0      12.4305      62.2634      137.182
    347 3 0      11.3778      62.7129       136.96
    348 2 0      11.4006      60.3635      138.541
    349 3 0       10.337      60.7839      138.339
    350 2 0      10.3957      58.4951      139.876
    351 3 0       9.3324      58.9183      139.672
    352 2 0      9.39501      56.6434      141.203
    353 3 0      8.33998      57.0792       140.99
    354 2 0      8.34784      54.6791      142.583
    355 3 0      7.25254      55.0377      142.408
    356 2 0      14.7418      63.5785      136.139
    357 1 0      15.1343      64.0321      137.054
    358 2 0      15.6838      63.8977      134.933
    359 1 0      16.6765      63.4736      135.084
    360 1 0      15.3266      63.4384      134.017
    361 2 0      15.7492      65.4521      134.802
    362 1 0      16.1442      65.8959       135.72
    363 2 0      16.6976      65.7643      133.597
    364 1 0      17.6884      65.3401      133.749
    365 1 0      16.3364      65.3051      132.682
    366 2 0      16.7583      67.3205      133.463
    367 1 0      17.1501      67.7659      134.382
    368 2 0       17.705      67.6341       132.26
    369 1 0      18.6961      67.2112      132.413
    370 1 0      17.3444      67.1754      131.344
    371 2 0      17.7646      69.1919      132.127
    372 1 0      18.1562      69.6371      133.046
    373 2 0      18.7123      69.5041      130.922
    374 1 0      19.7034      69.0813      131.077
    375 1 0      18.3521      69.0444      130.007
    376 2 0      18.7735      71.0582      130.789
    377 1 0      19.1595      71.5023      131.712
    378 2 0      19.7278      71.3755      129.588
    379 1 0      20.7161      70.9595      129.735
    380 1 0      19.3675      70.9221      128.671
    381 2 0      17.4533      71.6215      130.511
    382 3 0      16.4007      72.0711       130.29
    383 2 0      16.4235      69.7216      131.871
    384 3 0      15.3598      70.1417      131.669
    385 2 0      15.4187      67.8535      133.206
    386 3 0      14.3555      68.2765      133.002
    387 2 0      14.4184      66.0021      134.533
    388 3 0      13.3635      66.4383      134.319
    389 2 0      13.3711      64.0379      135.913
    390 3 0       12.276      64.3965      135.738
    391 2 0      19.7649      72.9365      129.469
    392 1 0      20.1576      73.3906      130.384
    393 2 0      20.7071      73.2553      128.263
    394 1 0      21.6994      72.8318      128.413
    395 1 0      20.3499      72.7965      127.347
    396 2 0      20.7724        74.81      128.131
    397 1 0      21.1674      75.2543       129.05
    398 2 0      21.7206      75.1219      126.927
    399 1 0      22.7113      74.6983      127.079
    400 1 0      21.3594      74.6631      126.012
    401 2 0      21.7811      76.6787      126.793
    402 1 0      22.1731      77.1239      127.712
    403 2 0      22.7286      76.9929      125.589
    404 1 0      23.7191      76.5691      125.743
    405 1 0      22.3674      76.5333      124.674
    406 2 0      22.7881      78.5497      125.456
    407 1 0      23.1794      78.9952      126.376
    408 2 0      23.7353      78.8617      124.252
    409 1 0      24.7266      78.4393      124.407
    410 1 0      23.3752      78.4024      123.337
    411 2 0       23.797      80.4167       124.12
    412 1 0      24.1825      80.8599      125.041
    413 2 0      24.7499      80.7339      122.918
    414 1 0      25.7397      80.3174      123.065
    415 1 0      24.3907      80.2801          122
    416 2 0      22.4766      80.9797      123.841
    417 3 0      21.4243      81.4298      123.619
    418 2 0      21.4468        79.08      125.201
    419 3 0      20.3832      79.5004      124.998
    420 2 0       20.442      77.2118      126.535
    421 3 0      19.3789      77.6351      126.331
    422 2 0      19.4412      75.3597      127.863
    423 3 0      18.3861      75.7955       127.65
    424 2 0      18.3941      73.3956      129.243
    425 3 0      17.2991      73.7549      129.067
    426 1 0      24.8211      81.8181      122.832
    427 1 0      38.9499       100.45      75.3444
    428 2 0      39.8429      101.059      75.1757
    429 1 0       40.426      100.981       76.099
    430 2 0      40.6806       100.46      73.9552
    431 1 0      40.9167      99.4104      74.1208
    432 1 0      40.1029      100.464      73.0381
    433 2 0       41.968      101.272      73.7863
    434 1 0      42.5688      101.228       74.698
    435 2 0      42.7651      100.654      72.5888
    436 1 0      42.9927      99.6052      72.7629
    437 1 0      42.1738      100.663      71.6783
    438 2 0      44.0749       101.49      72.4101
    439 1 0      44.6798       101.45      73.3209
    440 2 0      44.8594      100.861      71.2132
    441 1 0      45.0827      99.8113      71.3915
    442 1 0      44.2644      100.868      70.3048
    443 2 0      46.1691      101.697      71.0344
    444 1 0       46.773      101.658      71.9466
    445 2 0      46.9493      101.066      69.8365
    446 1 0      47.1735      100.016      70.0172
    447 1 0      46.3544      101.072      68.9289
    448 2 0      48.2582        101.9      69.6603
    449 1 0      48.8564      101.863      70.5743
    450 2 0      49.0465      101.265      68.4644
    451 1 0      49.2732       100.22      68.6377
    452 1 0      48.4551      101.275      67.5547
    453 2 0      47.9613      103.296      69.3464
    454 3 0      47.7247       104.41      69.0957
    455 2 0      45.8332      103.093      70.7445
    456 3 0      45.5666        104.2      70.5144
    457 2 0      43.7455      102.886      72.1166
    458 3 0      43.4841      103.994      71.8835
    459 2 0      41.6594      102.679      73.4832
    460 3 0      41.4165      103.787      73.2446
    461 2 0      39.4657      102.488      74.8869
    462 3 0      39.1765      103.585      74.6656
    463 2 0      50.3466      102.123      68.3011
    464 1 0      50.9563      102.087      69.2083
    465 2 0      51.1288      101.499      67.1003
    466 1 0      51.3514      100.447      67.2778
    467 1 0      50.5344      101.503      66.1925
    468 2 0      52.4393       102.33      66.9265
    469 1 0      53.0427      102.286       67.837
    470 2 0      53.2192      101.697      65.7277
    471 1 0      53.4412      100.646      65.9054
    472 1 0       52.623      101.704        64.82
    473 2 0      54.5285      102.533      65.5496
    474 1 0      55.1318      102.492      66.4614
    475 2 0        55.31      101.901      64.3522
    476 1 0       55.532      100.851      64.5321
    477 1 0      54.7134      101.909       63.445
    478 2 0      56.6192      102.739      64.1756
    479 1 0      57.2219      102.699      65.0878
    480 2 0      57.3991      102.106      62.9769
    481 1 0      57.6221      101.056      63.1585
    482 1 0      56.8027      102.113        62.07
    483 2 0      58.7071      102.941       62.801
    484 1 0      59.3053      102.904      63.7162
    485 2 0      59.4954      102.306      61.6051
    486 1 0      59.7218      101.262      61.7791
    487 1 0      58.9037      102.316       60.696
    488 2 0      58.4096      104.337      62.4876
    489 3 0      58.1726      105.451      62.2373
    490 2 0      56.2826      104.134      63.8853
    491 3 0      56.0158      105.241      63.6552
    492 2 0      54.1954      103.928      65.2576
    493 3 0       53.931      105.036      65.0258
    494 2 0      52.1242      103.728      66.6222
    495 3 0      51.8747      104.836       66.381
    496 2 0      49.9348      103.503      68.0418
    497 3 0      49.5995      104.601      67.8404
    498 2 0      60.7949      103.164      61.4426
    499 1 0      61.4051      103.128      62.3496
    500 2 0      61.5777       102.54      60.2416
    501 1 0      61.8002      101.488      60.4191
    502 1 0      60.9831      102.544      59.3338
    503 2 0      62.8878      103.371      60.0677
    504 1 0      63.4914      103.327      60.9784
    505 2 0      63.6685      102.738      58.8686
    506 1 0      63.8899      101.687      59.0468
    507 1 0      63.0717      102.745      57.9613
    508 2 0      64.9773      103.574      58.6911
    509 1 0      65.5804      103.533      59.6024
    510 2 0      65.7584      102.942      57.4938
    511 1 0      65.9808      101.892      57.6733
    512 1 0      65.1623       102.95      56.5862
    513 2 0      67.0678       103.78      57.3171
    514 1 0      67.6707       103.74      58.2289
    515 2 0      67.8482      103.147       56.118
    516 1 0      68.0709      102.097      56.2997
    517 1 0      67.2515      103.154      55.2113
    518 2 0      69.1556      103.982      55.9423
    519 1 0      69.7543      103.945      56.8577
    520 2 0      69.9439      103.346      54.7464
    521 1 0      70.1704      102.302      54.9203
    522 1 0      69.3523      103.357      53.8373
    523 2 0       68.858      105.378       55.629
    524 3 0      68.6212      106.492      55.3788
    525 2 0      66.7311      105.175       57.027
    526 3 0       66.464      106.282      56.7967
    527 2 0      64.6442      104.969       58.399
    528 3 0      64.3797      106.077      58.1671
    529 2 0      62.5734      104.769      59.7632
    530 3 0      62.3243      105.877      59.5218
    531 2 0       60.384      104.544      61.1828
    532 3 0      60.0489      105.642      60.9813
    533 2 0      71.2434      104.205      54.5836
    534 1 0       71.854      104.169      55.4913
    535 2 0       72.026       103.58       53.383
    536 1 0      72.2487      102.529      53.5604
    537 1 0      71.4318      103.585      52.4751
    538 2 0      73.3363      104.412      53.2085
    539 1 0      73.9402      104.368      54.1202
    540 2 0      74.1166      103.778      52.0101
    541 1 0      74.3384      102.728      52.1881
    542 1 0      73.5202      103.786      51.1026
    543 2 0      75.4259      104.615      51.8323
    544 1 0      76.0289      104.574      52.7439
    545 2 0      76.2077      103.983      50.6346
    546 1 0      76.4292      102.933      50.8147
    547 1 0      75.6105      103.991      49.7275
    548 2 0      77.5164      104.821       50.458
    549 1 0      78.1192      104.781      51.3705
    550 2 0      78.2962      104.188      49.2595
    551 1 0      78.5193      103.138       49.441
    552 1 0         77.7      104.195      48.3526
    553 2 0      79.6047      105.023      49.0839
    554 1 0      80.2024      104.986      49.9984
    555 2 0      80.3922      104.388      47.8885
    556 1 0      80.6191      103.343      48.0616
    557 1 0      79.8009      104.397      46.9784
    558 2 0      79.3068      106.419      48.7704
    559 3 0      79.0705      107.533      48.5196
    560 2 0        77.18      106.216      50.1677
    561 3 0      76.9131      107.323      49.9376
    562 2 0       75.093       106.01        51.54
    563 3 0      74.8288      107.118      51.3079
    564 2 0      73.0214       105.81      52.9048
    565 3 0      72.7719      106.918      52.6638
    566 2 0      70.8322      105.585      54.3242
    567 3 0      70.4977      106.683      54.1224
    568 1 0      81.3207      104.947      47.7722
    569 1 0        142.3      29.6524      51.7483
    570 2 0       141.85      30.5469      51.3089
    571 1 0      141.764      31.2631      52.1323
    572 2 0      142.812      31.1355      50.1787
    573 1 0      143.809      31.3217       50.573
    574 1 0      142.969      30.4204      49.3794
    575 2 0      142.208      32.4325       49.633
    576 1 0      142.094      33.1666      50.4343
    577 2 0      143.178      32.9834      48.5353
    578 1 0      144.172      33.1627      48.9386
    579 1 0      143.327      32.2564      47.7429
    580 2 0      142.556      34.3026       47.971
    581 1 0      142.439      35.0409      48.7699
    582 2 0      143.536      34.8404      46.8785
    583 1 0      144.529      35.0161      47.2867
    584 1 0      143.685      34.1099       46.089
    585 2 0      142.913      36.1594      46.3141