# LAMMPS data file written by Ovito 3.0.0-dev419
18 atoms
4 atom types
0.0 20.0 xlo xhi
0.0 20.0 ylo yhi
0.0 20.0 zlo zhi

Atoms # charge

1 1 0.0 12.069827 9.692889 9.828276
2 2 0.0 11.974741 11.007301 10.468199
3 2 0.0 10.489024 11.292373 10.568844
4 2 0.0 9.955734 9.989954 11.145826
5 2 0.0 8.447447 9.829137 10.956964
6 3 0.0 10.860552 8.897394 10.379898
7 4 0.0 11.956524 9.799372 8.792971
8 4 0.0 10.256882 8.384362 9.486025
9 4 0.0 12.527769 11.78895 9.903121
10 4 0.0 12.401455 10.952471 11.498167
11 4 0.0 10.104579 11.433706 9.531647
12 4 0.0 10.229984 12.188493 11.172117
13 4 0.0 10.206463 9.929051 12.228926
14 4 0.0 8.175151 9.877291 9.88053
15 4 0.0 8.117239 8.850901 11.366556
16 4 0.0 7.912146 10.637898 11.498049
17 4 0.0 11.231203 8.057281 11.14234
18 4 0.0 12.987482 9.239296 10.042971
