LAMMPS data file via write_data, version 12 Dec 2018, timestep = 16600000

6480 atoms
3 atom types

8.2090531471841828e+01 1.2320946852815872e+02 xlo xhi
8.2090531471841828e+01 1.2320946852815872e+02 ylo yhi
8.2090531471841828e+01 1.2320946852815872e+02 zlo zhi

Masses

1 14
2 12
3 1.008

Atoms # charge

4984 2 -6.4171923315590587e-02 8.5177367896406096e+01 8.5141343316016076e+01 8.6158092151799110e+01 0 1 0
4985 2 -6.7253203177196755e-02 8.5064107197538050e+01 8.6559781883076042e+01 8.6216000800893241e+01 0 1 0
5857 3 2.4562801017358779e-01 8.7526694488019885e+01 8.6719079621436919e+01 8.6255173211681637e+01 0 0 0
4983 2 8.6492223304689239e-02 8.4616380717121928e+01 8.4652761249883326e+01 8.4946496032017876e+01 0 1 0
4982 1 -4.4153362314115541e-01 8.4258645773124556e+01 8.5840763331323473e+01 8.4130826646423046e+01 0 1 0
1716 3 5.0258648242078104e-02 8.6687208784362454e+01 8.4694654473605922e+01 8.8805483951492903e+01 0 0 0
1713 2 -5.5476883430770618e-02 8.6915196624471847e+01 8.4257864699698516e+01 8.9763263741736935e+01 0 0 0
1714 2 1.1815081540094416e-01 8.7630487257322173e+01 8.3009926794315902e+01 8.9928823782303212e+01 0 0 0
1574 2 -6.5046923062280604e-02 8.3580384969598640e+01 8.4783879244558548e+01 8.9787988984957408e+01 0 1 0
4986 2 1.0255800949951152e-01 8.4457489234161514e+01 8.7028591386437611e+01 8.5019984537921445e+01 0 1 0
4988 3 3.4836838333915626e-02 8.5270481968339425e+01 8.7176647190417341e+01 8.7055840391874980e+01 0 1 0
4994 2 1.1743479891472906e-01 8.4150510768675161e+01 8.8407564120243194e+01 8.4750705729404928e+01 0 1 0
1712 2 -5.2871620491220288e-02 8.6684647346698753e+01 8.4913290268753627e+01 9.0988465016707210e+01 0 0 0
1725 3 2.1991052049398491e-01 8.7653135195500312e+01 8.3364158303644345e+01 8.6995106833996971e+01 0 0 0
5849 3 2.4144365792294342e-01 8.7288642636028285e+01 8.5193959330620260e+01 8.3896350545228046e+01 0 0 0
1573 2 9.9486504373483900e-02 8.2978884520436409e+01 8.4458471827521379e+01 8.8531506634884920e+01 0 1 0
5842 1 -4.5564281278340318e-01 8.8247850818900787e+01 8.5481953347159063e+01 8.3340356125312880e+01 0 0 0
1577 3 3.2920878308571724e-02 8.3213237482914948e+01 8.5608351468652927e+01 9.0429807941087546e+01 0 1 0
1575 2 -6.7541182611555256e-02 8.4232940796678392e+01 8.3617527864221231e+01 9.0244593326992828e+01 0 1 0
4987 3 5.4026933332175342e-02 8.5585779835195538e+01 8.4564739880156822e+01 8.6959953991861667e+01 0 1 0
1572 1 -4.7720265791703848e-01 8.3384684044066390e+01 8.3009783793884964e+01 8.8186502435984522e+01 0 1 0
1731 3 5.4104043762370935e-02 8.7133751272576305e+01 8.2628843401021314e+01 8.4604489655166319e+01 0 0 0
5863 3 2.3462218384959602e-02 8.6520574016121060e+01 8.7579768246504699e+01 8.8458571576928321e+01 0 0 0
1715 3 2.5551885659970457e-02 8.6040374183885461e+01 8.5765090908256312e+01 9.1066233658003881e+01 0 0 0
1710 1 -4.8459614100019099e-01 8.7675015868724387e+01 8.2842743624252577e+01 9.1358223125104345e+01 0 0 0
4975 2 1.1728346182533406e-01 8.4378785843657752e+01 8.3307627168158376e+01 8.4591299645107824e+01 0 1 0
5860 2 -5.8974699722897643e-02 8.7332945935731502e+01 8.8014960920426233e+01 8.9033875430997313e+01 0 0 0
1718 1 -4.7021070856490638e-01 8.8169271202522566e+01 8.2463977049699963e+01 8.7467067024221294e+01 0 0 0
4993 2 -7.0103864183371306e-02 8.3351440721039083e+01 8.8769837751097555e+01 8.3628463978019468e+01 0 1 0
1576 2 1.2136177901237345e-01 8.4066757893341347e+01 8.2506672295354790e+01 8.9321197651965903e+01 0 1 0
1722 2 1.0989765650869970e-01 8.8213047978541880e+01 8.2238738264054390e+01 8.8912314321135909e+01 0 0 0
1579 3 2.6794429818414045e-01 8.2836497604844482e+01 8.2369848456675754e+01 8.7470447227845327e+01 0 1 0
4976 2 -6.2552868667628186e-02 8.3759095218968298e+01 8.2996177548830090e+01 8.3312378680690117e+01 0 1 0
4989 3 2.1139960018435022e-01 8.3348166439672596e+01 8.5660789272400834e+01 8.3468782986255690e+01 0 1 0
3563 3 2.4448914124953869e-01 8.4718247768317227e+01 8.7436521747339583e+01 9.1509151766685591e+01 0 0 0
1581 2 9.1045099343516123e-02 8.2333363720400882e+01 8.5483872586863427e+01 8.7870951143743525e+01 0 1 0
1711 2 9.7926366951486016e-02 8.7120815966551575e+01 8.4045548976419582e+01 9.2054134893542027e+01 0 0 0
4979 3 4.7572733635175779e-02 8.3565000624682341e+01 8.3717093272164036e+01 8.2497555927039727e+01 0 1 0
5861 2 -7.3761904303295947e-02 8.7138737418163714e+01 8.8899490606465051e+01 9.0130225857005840e+01 0 0 0
4996 3 2.8155871926508796e-02 8.2869974228707562e+01 8.8059179891969180e+01 8.2920133474381956e+01 0 1 0
1587 3 2.0340915173741986e-01 8.2699482223317332e+01 8.7246839023443499e+01 8.9266984558471407e+01 0 1 0
1578 3 7.1497131089160920e-02 8.4820856699493547e+01 8.3572150433770958e+01 9.1185890572550349e+01 0 1 0
6381 3 6.6141253764937957e-02 8.7003691837186594e+01 8.8292726916481129e+01 8.4484150766404611e+01 0 0 0
5850 1 -4.7033828394779365e-01 8.8615680142632939e+01 8.6560616423638564e+01 8.6427088310383638e+01 0 0 0
1580 1 -4.3617055642131092e-01 8.2172996847967383e+01 8.6915657829126019e+01 8.8290501441089788e+01 0 1 0
5859 2 1.1037678243003157e-01 8.8694985853667404e+01 8.7985166916192782e+01 8.8644713692082277e+01 0 0 0
3553 3 7.1570925286789155e-02 8.7481186336610023e+01 8.7369676512615186e+01 9.1960254611653568e+01 0 0 0
3556 1 -4.9905062983212084e-01 8.4395902596104889e+01 8.8065448610993840e+01 9.2327808552727546e+01 0 0 0
3564 3 -2.3789837970818781e-02 8.2384859605450472e+01 8.8571369265425687e+01 9.1868552873934533e+01 0 0 0
3588 3 5.4727824474857079e-02 8.5471099609593864e+01 8.8767481976222228e+01 8.2236066285938364e+01 1 0 1
2591 3 2.3382322952656007e-01 8.2210969979376770e+01 8.3921795759291811e+01 9.1931231961042386e+01 0 1 0
641 2 7.0803505082070214e-02 9.3560917349742041e+01 8.3372575031136265e+01 9.2047322304779939e+01 0 0 0
5846 2 1.1751861202565533e-01 8.9437852708383247e+01 8.5954506185409087e+01 8.4015627531725926e+01 0 0 0
5851 2 1.1024092644465121e-01 8.9260353780010192e+01 8.7292497981543832e+01 8.7532583930187059e+01 0 0 0
5854 2 1.2715980634401328e-01 8.9600102468415571e+01 8.6369886857598942e+01 8.5389601524610470e+01 0 0 0
3152 1 -4.8036400709896726e-01 9.1929569521174756e+01 8.6170532466691114e+01 9.1653225882904948e+01 0 0 0
2061 2 -6.7228969716121828e-02 9.4145259495570357e+01 8.7179917678551263e+01 8.2644670880285773e+01 0 0 0
5845 2 -5.7071875707856039e-02 9.0476828485081725e+01 8.5980565209565142e+01 8.3033149180142189e+01 0 0 0
3157 3 5.8565544044723881e-02 8.9318273282564732e+01 8.5145689373993150e+01 8.9947327025658979e+01 0 0 0
5853 2 -7.2160258835706231e-02 9.0848437959273824e+01 8.6821922033741643e+01 8.5897107910728096e+01 0 0 0
5852 2 -4.3629005319181159e-02 9.0641314588175661e+01 8.7259884976331506e+01 8.7249708151978794e+01 0 0 0
3142 3 8.0562267391396492e-02 8.9858019452316086e+01 8.3343942801761770e+01 8.5687164167500924e+01 0 0 0
3139 2 -5.8912099105326264e-02 9.0790098099022330e+01 8.3390724903609510e+01 8.5174372957001211e+01 0 0 0
3138 2 -5.8744142838383424e-02 9.0834556193330030e+01 8.3273569822077292e+01 8.3745867836680162e+01 0 0 0
5856 3 7.3310438071467560e-02 9.1791233473466065e+01 8.6672780699438121e+01 8.5441163077709035e+01 0 0 0
3144 1 -4.5198154469270985e-01 9.1396974101466498e+01 8.4594863326159455e+01 8.8051057032267892e+01 0 0 0
3151 3 2.5758749206783038e-01 9.0286069627154106e+01 8.4320377459777930e+01 8.8043112245979174e+01 0 0 0
3140 2 1.0907744294762141e-01 9.2043310134957594e+01 8.3810324874122401e+01 8.5677466157972674e+01 0 0 0
3148 2 1.2846600541527162e-01 9.2318943392686606e+01 8.4262071250499105e+01 8.7022319038070066e+01 0 0 0
3145 2 1.0663574757306662e-01 9.2046877541686868e+01 8.5285717988797970e+01 8.9192297349532168e+01 0 0 0
3153 2 1.2154681887073041e-01 9.1417211728303471e+01 8.5664246966316824e+01 9.0382413130999282e+01 0 0 0
3154 2 -3.1157038606854193e-02 9.0031902799583335e+01 8.5476982350164519e+01 9.0726394288749660e+01 0 0 0
3147 2 -4.9609484957033136e-02 9.3584155696539767e+01 8.4657097820675503e+01 8.7527599020064983e+01 0 0 0
3136 1 -4.2588748165747459e-01 9.2935600664762703e+01 8.3831547591644181e+01 8.4535621982233778e+01 0 0 0
3137 2 1.0473085917175116e-01 9.2148803876136242e+01 8.3601579733400726e+01 8.3304672675769837e+01 0 0 0
3146 2 -4.7079223737662525e-02 9.3405110730661761e+01 8.5297833920345099e+01 8.8812869859849741e+01 0 0 0
3149 3 3.0620891868880999e-02 9.4178489528685276e+01 8.5830201804576618e+01 8.9332114718491184e+01 0 0 0
5855 3 7.0437732137403231e-02 9.1459068857229042e+01 8.7546794528596749e+01 8.7937476785792484e+01 0 0 0
3150 3 3.7709641471142884e-02 9.4532631844981495e+01 8.4520720996404322e+01 8.7004202543584213e+01 0 0 0
3143 3 2.2112546786049347e-01 9.4093877020642765e+01 8.3888498917154550e+01 8.4712964168450341e+01 0 0 0
2059 2 1.0445884273727221e-01 9.4787474762762258e+01 8.7679599200037657e+01 8.4846711276519116e+01 0 0 0
2060 2 -5.4086581960792801e-02 9.3815050449211270e+01 8.7861398519658238e+01 8.3835509638809526e+01 0 0 0
645 3 6.5013667267460357e-02 9.4236460448377827e+01 8.3171838450767325e+01 9.0007236645899468e+01 0 0 0
642 2 -4.1417431560084851e-02 9.3464134580748350e+01 8.3032048168417788e+01 9.0696624697804324e+01 0 0 0
2067 2 9.5304372341365934e-02 9.4706064420887984e+01 8.8101063517752891e+01 8.6192147514238385e+01 0 0 0
3141 3 8.9765271092885984e-02 9.0009768917317970e+01 8.3009004039251096e+01 8.3129523248397192e+01 0 0 0
2063 3 4.8648650462784986e-02 9.2800310748499001e+01 8.8238781501128813e+01 8.4010985043166883e+01 0 0 0
2069 2 -6.3561062999514570e-02 9.5291352587172469e+01 8.8535306546614081e+01 8.8417365589286788e+01 0 0 0
5848 3 6.7200284392600673e-02 9.1451973550698526e+01 8.6353541616426526e+01 8.3209141168012394e+01 0 0 0
2066 1 -4.6231020686823926e-01 9.3597859409855900e+01 8.8916352443690258e+01 8.6849815885286120e+01 0 0 0
3155 2 -6.4836969335684613e-02 8.9734811591230724e+01 8.5613213278522437e+01 9.2095660198524300e+01 0 0 0
643 2 -6.6969575462269074e-02 9.2207185434513079e+01 8.2387679378724073e+01 9.0351195465402895e+01 0 0 0
3159 3 2.6521644830976354e-01 9.2987860309926234e+01 8.6174328093513623e+01 9.1816461814559617e+01 0 0 0
5858 1 -4.3026987840555680e-01 8.9399885414704301e+01 8.8809236437115999e+01 8.9614414902685866e+01 0 0 0
3133 3 7.1979651537153744e-02 9.4884631069104231e+01 8.4035450277772611e+01 8.2566042564216559e+01 0 0 0
2062 2 1.0442958170147996e-01 9.5446375519606164e+01 8.6635922637603898e+01 8.2822400511493143e+01 0 0 0
2068 2 -5.0793680817647208e-02 9.5629410603361720e+01 8.7824218592812812e+01 8.7220968900837747e+01 0 0 0
644 2 1.5135887482692031e-01 9.1444804748901916e+01 8.2251076738435842e+01 9.1468437013921331e+01 0 0 0
632 1 -4.6187499937157395e-01 9.5724803859724261e+01 8.4802358723421037e+01 9.2241675017237370e+01 0 0 0
3785 2 8.7894167256319336e-02 1.0155696911546339e+02 8.2384705858888211e+01 8.2154820865388615e+01 0 0 0
3786 2 -6.4926754871032319e-02 1.0039693639128495e+02 8.2145729154967015e+01 8.2911637072400424e+01 0 0 0
5667 3 8.0279043270122918e-02 9.8055085684094280e+01 8.2422121295468898e+01 9.2344309863023298e+01 0 0 0
3798 3 4.3559109894567391e-02 1.0195271897217822e+02 8.6924181719035460e+01 8.2210985350654354e+01 0 0 0
639 3 2.4659214461342749e-01 9.5902115342574547e+01 8.4954010084985370e+01 9.1147380974364680e+01 0 0 0
5666 2 1.2137170798789090e-01 9.6949672681072471e+01 8.2627181333923090e+01 8.9132724223974577e+01 0 0 0
2058 1 -4.3893237288103232e-01 9.5863609056428771e+01 8.6894559437529821e+01 8.4207883954449457e+01 0 0 0
2071 3 2.3368692843402605e-02 9.6619083401314185e+01 8.7272602347611596e+01 8.7007420390755499e+01 0 0 0
5664 2 -3.8239721832300830e-02 9.7879177407618471e+01 8.2695044120246266e+01 9.1281130613682549e+01 0 0 0
2065 3 2.0539203100769940e-01 9.6786687384079613e+01 8.6460198026070529e+01 8.4785765036996736e+01 0 0 0
3795 2 -5.1959424720487785e-02 1.0131980424904938e+02 8.6924270599123446e+01 8.3069412298582790e+01 0 0 0
5669 3 2.0480272871053029e-01 9.7969603300011229e+01 8.4118101813261063e+01 8.7991898485010339e+01 0 0 0
5657 2 -5.5606962819672846e-02 1.0093874780575271e+02 8.6364884417027724e+01 9.1016735490913888e+01 0 0 0
5662 1 -4.4653707116776248e-01 9.7878773072117568e+01 8.3611793099412665e+01 8.8985145948103309e+01 0 0 0
3805 3 1.0120147846654326e-02 9.8641474807773932e+01 8.6931968521056660e+01 8.7226849121937732e+01 0 0 0
3799 3 2.0936423034033891e-01 9.9630432167074900e+01 8.5620753073588588e+01 8.5583988852672292e+01 0 0 0
3793 2 1.0664365350524488e-01 1.0033941499352242e+02 8.7652316504082989e+01 8.5006488765317911e+01 0 0 0
3792 1 -4.6007455507130790e-01 9.9831475421557641e+01 8.6272207207664536e+01 8.4679542034340315e+01 0 0 0
3802 2 -4.3507646856582260e-02 9.9302245173542644e+01 8.7835021426722008e+01 8.7289981673838568e+01 0 0 0
5659 3 5.3993378762022752e-02 9.9890733843620197e+01 8.5671282760452769e+01 8.9146764013426264e+01 0 0 0
5656 2 -5.2068090347147822e-02 1.0013270123631808e+02 8.5531536451858159e+01 9.0195825405767550e+01 0 0 0
5663 2 7.9741427904941917e-02 9.8566853496484015e+01 8.3656831186305737e+01 9.0514695746414375e+01 0 0 0
5655 2 1.2588019038006490e-01 9.9507191576687518e+01 8.4534112806289002e+01 9.0996137218933839e+01 0 0 0
3796 2 1.0717938611662406e-01 1.0059207800718944e+02 8.5808689520435166e+01 8.3544347424310430e+01 0 0 0
3787 2 -5.4230229128978985e-02 9.9841121447320248e+01 8.3376805134348757e+01 8.3432588837682431e+01 0 0 0
3794 2 -6.2462445687734056e-02 1.0118102794831870e+02 8.8033224969841058e+01 8.3956047859206137e+01 0 0 0
2056 3 8.1965602036688484e-02 9.8226843215618032e+01 8.5693187018548471e+01 8.2851579825026249e+01 0 0 0
3788 2 1.0584819963615569e-01 1.0066753955492911e+02 8.4454589413916679e+01 8.3033126786024582e+01 0 0 0
3801 2 1.0670306349402933e-01 1.0006808414200269e+02 8.8348394577848453e+01 8.6219150561831711e+01 0 0 0
5660 3 5.3574078618430221e-02 1.0155300830412865e+02 8.7108185574690452e+01 9.0635342427090691e+01 0 0 0
3790 3 2.9455885519234972e-02 9.9008105443128130e+01 8.3466539764220471e+01 8.4138567656171148e+01 0 0 0
3803 2 -6.3125115823089772e-02 9.9347335981390700e+01 8.8647690240093482e+01 8.8468937716900811e+01 0 0 0
3806 3 5.0839773183623801e-02 9.8843266375056999e+01 8.8551960789522056e+01 8.9394362956072456e+01 0 0 0
630 3 3.9291102615209683e-02 9.7631269646102041e+01 8.6939519578276489e+01 9.1056752737115829e+01 0 0 0
2072 3 2.6096794225297162e-02 9.5883601295205366e+01 8.8495596506949497e+01 8.9348232751952665e+01 0 0 0
3797 3 6.9726549769098867e-02 1.0181097823268394e+02 8.8907564641608062e+01 8.3857379322478195e+01 0 0 0
5654 1 -4.7528474404490023e-01 1.0015330835439666e+02 8.4676146335525729e+01 9.2340827416092083e+01 0 0 0
3784 1 -4.5608079089524767e-01 1.0163383778730277e+02 8.3861119094607048e+01 8.2145961775283936e+01 0 0 0
629 3 5.3630383938849210e-02 9.9341773506083996e+01 8.8790203504621971e+01 9.1884884602473377e+01 0 0 0
627 2 -4.9925400446236334e-02 9.7783840035510238e+01 8.7250095535222030e+01 9.2109248032471356e+01 0 0 0
5670 3 2.6468639879866640e-03 9.6339004487941537e+01 8.2268793351484007e+01 8.8318000728637898e+01 0 0 0
6398 3 2.4737136698463280e-02 8.4403130468353325e+01 9.3549054206669837e+01 9.2337492206379778e+01 0 0 0
2420 3 8.1688565601103380e-02 8.6417213537932795e+01 9.5758645965991008e+01 8.4820572587925085e+01 1 0 1
6395 2 -5.8007018640450353e-02 8.5359671495572599e+01 9.3588639962311390e+01 9.1905949578330137e+01 0 0 0
4990 1 -4.5263551094978560e-01 8.4461819653993587e+01 8.9549600344429564e+01 8.5546167728400704e+01 0 1 0
4997 3 2.3699610788509504e-01 8.4392441869901447e+01 8.9457556249397939e+01 8.6660380722383309e+01 0 1 0
6392 1 -4.6060475678745411e-01 8.7575977222935080e+01 9.4065972313804266e+01 9.1688975609090704e+01 0 0 0
3571 3 5.5381686867632673e-02 8.7854621589564658e+01 9.4739279132125787e+01 8.6911265846414196e+01 1 0 1
3568 2 -8.5871955202398001e-02 8.8202170871185757e+01 9.4623573931232812e+01 8.5848398770710915e+01 1 0 1
5864 3 4.0537420980840976e-02 8.6147045560369449e+01 8.9156523387618861e+01 9.0530145430750551e+01 0 0 0
5862 2 1.2800486981433798e-01 8.8416761792850679e+01 8.9360796476970705e+01 9.0545669772395499e+01 0 0 0
4992 2 -7.6807606805443518e-02 8.3157002775120773e+01 9.0163929847652241e+01 8.3692311418469743e+01 0 1 0
6378 2 -6.3779406115800533e-02 8.7609419396946407e+01 8.9100943435532201e+01 8.4837624005927495e+01 0 0 0
4991 2 9.0735134063913481e-02 8.3886605873729835e+01 9.0737539085081210e+01 8.4746257624290536e+01 0 1 0
6382 3 3.8854396381937398e-02 8.6677491364014784e+01 8.9340989603744276e+01 8.6834792256549093e+01 0 0 0
6397 3 2.3340229054645417e-02 8.5294866175859966e+01 9.1948316618355406e+01 9.0272195136671854e+01 0 0 0
5004 3 4.4629204333072471e-02 8.4997692368191380e+01 9.4719873784066166e+01 8.7020545790737685e+01 0 1 0
5002 2 1.2670582353158066e-01 8.3790789713815244e+01 9.4449383282406018e+01 8.5113393480618527e+01 0 1 0
5001 2 -5.7268026633506816e-02 8.4632488052314343e+01 9.4051619874104475e+01 8.6220037530500136e+01 0 1 0
5000 2 -5.3914641436388452e-02 8.4709920250455198e+01 9.2649357405501320e+01 8.6189740576175012e+01 0 1 0
3570 3 7.8110744408534299e-02 8.7048668442231573e+01 9.2732460883794573e+01 8.5349450584817959e+01 1 0 1
6379 2 -3.5663433249999002e-02 8.7499787517165615e+01 8.9652662908363638e+01 8.6117101913245349e+01 0 0 0
3581 3 2.8099328843085442e-01 8.6343597958015408e+01 9.1232804024713815e+01 8.3465440154537390e+01 1 0 1
3567 2 -5.9989377434775566e-02 8.7683718330652638e+01 9.3538660274445988e+01 8.5021872926344088e+01 1 0 1
4999 2 1.2751191905447085e-01 8.3932119920686787e+01 9.2080251343992643e+01 8.5091020598169848e+01 0 1 0
5003 3 4.5807852272195665e-02 8.5195518764871139e+01 9.1971699130973548e+01 8.6929221100216949e+01 0 1 0
4998 1 -4.9060693064094096e-01 8.3449875381917138e+01 9.3265905740683095e+01 8.4367722550828304e+01 0 1 0
6384 1 -4.3361008415580027e-01 8.7657257448409837e+01 9.1377741657207523e+01 8.8764631499350372e+01 0 0 0
6391 3 2.2001091968136108e-01 8.6657134648880913e+01 9.0866638640440044e+01 8.8872940118300633e+01 0 0 0
6385 2 1.1123592000710186e-01 8.7995473390807874e+01 9.2499993945438533e+01 8.9618072341993241e+01 0 0 0
6393 2 1.2101859982246593e-01 8.7228107798770424e+01 9.3019702612386837e+01 9.0702076690574572e+01 0 0 0
6380 2 1.1446465054921752e-01 8.8462366482907157e+01 9.0680096417970759e+01 8.6385377094347874e+01 0 0 0
3575 2 1.3592820248481835e-01 8.7775412734953946e+01 9.2880635548140006e+01 8.2642571678580978e+01 1 0 1
3574 1 -4.7031079023423134e-01 8.6880393398507977e+01 9.1674212097526762e+01 8.2586521847241997e+01 1 0 1
6394 2 -6.3986971680264765e-02 8.5856074276163568e+01 9.2751534740770026e+01 9.0854260346359155e+01 0 0 0
6388 2 1.1011070715361243e-01 8.8541789683658195e+01 9.1403171310671723e+01 8.7577840315609080e+01 0 0 0
3566 2 7.4661147758689705e-02 8.8111304239083026e+01 9.3658064161798649e+01 8.3731136430181778e+01 1 0 1
5005 3 2.5672048791860153e-01 8.2643594105958186e+01 9.3284620149050767e+01 8.3639559920257739e+01 0 1 0
2413 3 2.6712990547761090e-01 8.5023683051119320e+01 9.4647900014990398e+01 8.2560103782666388e+01 1 0 1
4995 3 3.0910208759298726e-02 8.2563706807671110e+01 9.0675625803801154e+01 8.2960013727815735e+01 0 1 0
6377 2 1.2980691811517175e-01 8.8697678245319324e+01 8.9767831585966235e+01 8.4168038227881382e+01 0 0 0
6399 3 2.4239732527141894e-01 8.8613232514823807e+01 9.4173351848117989e+01 9.2055595432901313e+01 0 0 0
5870 2 1.2576549154013877e-01 8.8758749298485270e+01 9.0171382125763344e+01 9.1669927729448347e+01 0 0 0
5010 2 1.2162448542743372e-01 8.3337424022994853e+01 9.5777013244295929e+01 8.4878514220998909e+01 0 1 0
3702 1 -4.9187438214121249e-01 9.3543371134186955e+01 9.1074305285318275e+01 8.2101962784650851e+01 0 0 1
5865 3 2.3745478074841991e-01 9.0518748955659305e+01 8.9118165426826650e+01 8.9691330934259497e+01 0 0 0
6369 2 1.2979317281370248e-01 8.9091499773772199e+01 8.9397962770750681e+01 8.2878365052737621e+01 0 0 0
3726 3 -2.3894402628140160e-02 9.1872358255532191e+01 9.5469859290424679e+01 9.0621325348100115e+01 0 0 1
2083 2 9.8133290135696827e-02 9.3365253114563103e+01 9.2210497865125916e+01 9.2290585408118488e+01 0 0 0
3565 1 -4.5564518259731090e-01 8.9135528662212693e+01 9.5033464979513525e+01 8.3789184879660652e+01 1 0 1
3569 2 1.5004788248484269e-01 8.9025284988054210e+01 9.5403298882406631e+01 8.5059951803361173e+01 1 0 1
3723 3 2.8277586489384467e-02 9.1077331594366711e+01 9.5710702333711197e+01 8.6412614374202661e+01 0 0 1
6386 2 -5.5392792812192601e-02 8.9195258770231987e+01 9.3034345847593642e+01 8.9068567227167165e+01 0 0 0
6376 1 -4.8873177572798460e-01 8.9270711531157772e+01 9.0717605618373341e+01 8.5165264553327958e+01 0 0 0
2070 2 1.2537064274497428e-01 9.4076534854146431e+01 8.9251868234303160e+01 8.8143993192051482e+01 0 0 0
3722 2 1.5802038571146063e-01 9.1792770677682526e+01 9.5242383399266160e+01 8.9553132303756328e+01 0 0 1
2073 3 2.4702306632685767e-01 9.2564530992280353e+01 8.8962301799402439e+01 8.6379429175854057e+01 0 0 0
2081 3 2.0986381805206672e-01 9.4744503825174874e+01 8.9842261624658647e+01 9.1180867042580502e+01 0 0 0
6370 2 -6.5014980687237683e-02 9.0258378827548654e+01 8.9856012838529097e+01 8.2190256290400924e+01 0 0 0
6387 2 -6.1852002944095333e-02 8.9517473344697876e+01 9.2428048013040097e+01 8.7832572349749825e+01 0 0 0
6389 3 6.5412433194628125e-02 8.9618823481105437e+01 9.3967073617686637e+01 8.9459703464190014e+01 0 0 0
6373 3 9.5055236144401659e-02 9.0971361785807986e+01 9.0545785165612003e+01 8.2579831641351106e+01 0 0 0
2078 2 1.0393064478816469e-01 9.3496624377460591e+01 9.0073553822337786e+01 8.9171018258860130e+01 0 0 0
2075 2 8.9284059559283882e-02 9.3159445681806929e+01 9.1388740480751807e+01 9.1180858843905241e+01 0 0 0
6383 3 2.8738906185101276e-01 8.9976236725665999e+01 9.1536500768765322e+01 8.5047613156064784e+01 0 0 0
6390 3 7.1471997355888620e-02 9.0325539600616196e+01 9.2752878201402211e+01 8.7144682327392630e+01 0 0 0
2080 3 7.7621905446034381e-02 9.1613389768789375e+01 9.0786322329466145e+01 8.8219526825029874e+01 0 0 0
3710 1 -5.1153942352875936e-01 9.2253841439727026e+01 9.3489291520745525e+01 8.4943377406000124e+01 0 0 1
2079 3 7.1102482222709512e-02 9.1157240694718567e+01 9.2107555559125700e+01 9.0442941481143166e+01 0 0 0
3711 2 1.1859121299526160e-01 9.2595512610254147e+01 9.3422160494040767e+01 8.6379294205169600e+01 0 0 1
3714 2 1.1218588497413240e-01 9.2930737639802089e+01 9.2421422238589741e+01 8.4198211198415208e+01 0 0 1
3716 3 9.4410914741467455e-02 9.4310167166711494e+01 9.0974371022265743e+01 8.4966114208158416e+01 0 0 1
3713 2 -6.8831759167019391e-02 9.3710981005042058e+01 9.1757044359575346e+01 8.5186618214475402e+01 0 0 1
3715 3 8.7754693991156402e-02 9.4022204571278877e+01 9.1933036231147696e+01 8.7348783046644058e+01 0 0 1
3712 2 -5.9286878215763616e-02 9.3478716833295906e+01 9.2300893145608086e+01 8.6483995999224689e+01 0 0 1
2076 2 -6.1596919531917579e-02 9.2059265439066451e+01 9.1462999732634032e+01 9.0278715814321373e+01 0 0 0
2077 2 -8.3819853259834876e-02 9.2284350113084443e+01 9.0765537624902279e+01 8.9058982777976325e+01 0 0 0
3725 3 2.9961860090062459e-01 9.3273250232093261e+01 9.3456616327510332e+01 8.9409587256241707e+01 0 0 1
2074 1 -4.4980104091015111e-01 9.4034399568830537e+01 9.0387600676823311e+01 9.0515201147430332e+01 0 0 0
3706 2 1.0996745980612641e-01 9.2792405144984016e+01 9.2063494179997917e+01 8.2826965215179385e+01 0 0 1
3717 3 2.7346424678726861e-01 9.1959544321214238e+01 9.4421914499439012e+01 8.4519576357905080e+01 0 0 1
3719 2 5.2749890904756874e-02 9.2133669690190118e+01 9.4208586516423168e+01 8.7399736262380912e+01 0 0 1
3718 1 -4.8067597693185177e-01 9.2517502038755765e+01 9.4207548290323999e+01 8.9054066385505934e+01 0 0 1
3709 3 2.6747352483951398e-01 9.4576446659200045e+01 9.0673198139291543e+01 8.2227364326062073e+01 0 0 1
319 2 -8.2536429942493952e-02 9.5194427496107920e+01 9.5323519017894000e+01 8.9668026163899597e+01 0 0 1
5869 2 -5.4854202704642009e-02 9.0108584858874551e+01 9.0390405214732112e+01 9.2116045317947894e+01 0 0 0
5872 3 5.5240294436872867e-02 9.1018919708903837e+01 8.9834567865904191e+01 9.1768546467557599e+01 0 0 0
3720 2 -4.2270520564428531e-02 9.1379794724806445e+01 9.5376506034891548e+01 8.7380465657294309e+01 0 0 1
324 3 4.9764926370894309e-02 9.4947210630560562e+01 9.4277411572148949e+01 9.1635360703888239e+01 0 0 1
320 2 1.0973737011699838e-01 9.5320862208882332e+01 9.4315359418298527e+01 9.0634479956371777e+01 0 0 1
3708 3 6.9657035516360100e-02 9.1157525872974020e+01 9.3333231895966165e+01 8.2098038485592738e+01 0 0 1
2291 3 4.0286078891766802e-02 9.3365630608736240e+01 9.5003859393572498e+01 8.3069140936707811e+01 0 0 1
321 3 5.5760544750567090e-02 9.5683436557610122e+01 9.5369691200281835e+01 8.7492610835365127e+01 0 0 1
318 2 -3.9360055958576744e-02 9.5754260501570556e+01 9.4811872383633499e+01 8.8474873305898157e+01 0 0 1
3573 3 2.3592789199761721e-01 8.9674065618637513e+01 9.5481743932156505e+01 8.2890614560095642e+01 1 0 1
3812 2 1.1113632676722723e-01 1.0026498921219570e+02 9.0846320996590279e+01 8.9059213029530042e+01 0 0 0
3823 3 2.1212742284922892e-01 9.9576557101780395e+01 9.5522510137972546e+01 9.1174644938052779e+01 0 0 0
316 1 -4.5750507088717901e-01 9.5840258422210582e+01 9.3122698651915769e+01 9.0124102610289142e+01 0 0 1
304 2 1.1917389169116639e-01 9.7219129559482141e+01 9.1631677665513507e+01 8.3953446528646793e+01 0 0 1
3800 1 -4.3874375010197336e-01 1.0062552015134587e+02 8.9611786783803964e+01 8.6701847931315498e+01 0 0 0
317 2 9.3101433627807761e-02 9.6068176402140651e+01 9.3421817708321370e+01 8.8629006573980604e+01 0 0 1
4643 2 1.0581767558964247e-01 9.9340532163594787e+01 9.4588213328304533e+01 8.3787596837727506e+01 0 0 1
4637 2 -6.2884202676740553e-02 9.9300195502223971e+01 9.5227158007044139e+01 8.7438268931353022e+01 0 0 1
3808 1 -4.3587702818898327e-01 9.9528601015833004e+01 9.1166964842990240e+01 9.0259515589027032e+01 0 0 0
3814 3 4.0744853800295064e-02 1.0173899511147866e+02 9.2214097591991589e+01 8.7987017099507540e+01 0 0 0
3817 2 9.3866881842213493e-02 9.9013961994012490e+01 9.3385086296686509e+01 9.1534262449311356e+01 0 0 0
310 2 -3.9627955144159344e-02 9.6729937913346689e+01 9.1194436890796794e+01 8.7618874051983298e+01 0 0 1
4635 2 1.0099277651413004e-01 9.9244541501718800e+01 9.5174750065494720e+01 8.5077459279926529e+01 0 0 1
315 3 2.4161372830258648e-01 9.6301714267450151e+01 9.3861492107948152e+01 8.5697215085131901e+01 0 0 1
3811 2 -6.1680592771002372e-02 1.0103666835313618e+02 9.2011867753818422e+01 8.8794522188378579e+01 0 0 0
309 2 1.0791132354459188e-01 9.6456735240898567e+01 9.2586615807024828e+01 8.7634587048994362e+01 0 0 1
3807 3 2.2459248190546330e-01 1.0062610855222414e+02 9.0532615997203990e+01 8.6074930287310977e+01 0 0 0
303 2 -4.0964830902110262e-02 9.6926391604906897e+01 9.2639784590488304e+01 8.3033114929128601e+01 0 0 1
4644 2 -5.4396713266322866e-02 9.8987969935940768e+01 9.5213221002730819e+01 8.2560175624080273e+01 0 0 1
323 3 2.4924020670972896e-01 9.6351574744640985e+01 9.2231817725080049e+01 9.0552233665534359e+01 0 0 1
3815 3 1.9496666367030671e-01 9.8498984768498843e+01 9.0742133007735447e+01 9.0550128321236059e+01 0 0 0
3804 2 9.9698330661935591e-02 1.0017493626511434e+02 8.9754552625941500e+01 8.8134179259048480e+01 0 0 0
300 1 -5.0506492972700578e-01 9.7520890588786358e+01 9.0427205151330512e+01 8.3169587861146837e+01 0 0 1
314 3 6.2314030932177536e-02 9.7247873859151071e+01 8.9634224952525287e+01 8.6042820246122844e+01 0 0 1
4642 1 -4.0996481603294871e-01 9.9791572434212696e+01 9.3280970337441971e+01 8.3385461436247667e+01 0 0 1
4656 3 3.9649250450851894e-02 1.0066101208984989e+02 9.0712275479227387e+01 8.3039357968852983e+01 0 0 1
4640 3 5.4169161822314724e-02 9.9251163967646448e+01 9.4844373620775627e+01 8.8484100335326389e+01 0 0 1
308 1 -4.4096658203453393e-01 9.6649687014305329e+01 9.2916465876016346e+01 8.6161600642270741e+01 0 0 1
313 3 5.1756401607102404e-02 9.6547699844262951e+01 9.0528155960587156e+01 8.8471183337910460e+01 0 0 1
4639 3 5.4774465346353579e-02 1.0007352436626189e+02 9.3532418747640151e+01 8.6308460230986412e+01 0 0 1
306 3 5.4535645497767488e-02 9.6598928684402239e+01 9.3677058411684669e+01 8.3297940849506475e+01 0 0 1
3810 2 -5.1271085307800002e-02 1.0070939729506978e+02 9.3036238957158972e+01 8.9728779059261029e+01 0 0 0
307 3 2.8252545939448137e-01 9.7667512704915779e+01 8.9407190288368668e+01 8.3508514555041273e+01 0 0 1
4636 2 -5.1124179318656829e-02 9.9633162206573246e+01 9.4499605741896374e+01 8.6277472889202244e+01 0 0 1
3809 2 7.8519180750566686e-02 9.9738915739205098e+01 9.2602553245519118e+01 9.0679188732344073e+01 0 0 0
4649 3 1.9953226909002761e-01 9.9790927150616255e+01 9.2280488862080631e+01 8.4048766504895823e+01 0 0 1
312 2 1.0751045694655402e-01 9.7043149462147213e+01 9.1747505925637881e+01 8.5384542217993982e+01 0 0 1
311 2 -4.8710715388333214e-02 9.7044523823748108e+01 9.0697859927445165e+01 8.6303767784138600e+01 0 0 1
3816 1 -4.5296055603468827e-01 9.8983676386588542e+01 9.4835350054423486e+01 9.1872716560301569e+01 0 0 0
3813 3 2.4622648617001006e-02 1.0122446508186297e+02 9.3998894771645695e+01 8.9636781199881071e+01 0 0 0
1704 2 -5.4039694627725426e-02 8.7411773247591029e+01 8.3478704723222108e+01 9.4499829971326236e+01 0 0 0
1702 1 -4.4564345217696472e-01 8.6338407442056806e+01 8.5462737051370482e+01 9.4063212548169261e+01 0 0 0
1703 2 1.0051808929591945e-01 8.7028988271822371e+01 8.4323221853219323e+01 9.3425183351173942e+01 0 0 0
1709 3 2.5978649949640598e-01 8.5448879302240073e+01 8.6063126454942335e+01 9.3609069324297892e+01 0 0 0
1694 1 -4.8079118856518466e-01 8.5575100886686158e+01 8.5748098168460331e+01 9.7979350488220092e+01 0 0 0
1698 2 1.1030290617892312e-01 8.5678849752142256e+01 8.6010762079578100e+01 9.6541950358939758e+01 0 0 0
1701 3 2.2897072947062852e-01 8.6146407219090690e+01 8.4910693969828429e+01 9.8462597622330946e+01 0 0 0
1708 3 3.3172648728021205e-02 8.7259833599660794e+01 8.3667476202616541e+01 9.6742054271116189e+01 0 0 0