LAMMPS data file via write_data, version 12 Dec 2018, timestep = 16800000

4240 atoms
3 atom types

7.7119850216835715e+01 1.1388014978316329e+02 xlo xhi
7.7119850216835715e+01 1.1388014978316329e+02 ylo yhi
7.7119850216835715e+01 1.1388014978316329e+02 zlo zhi

Masses

1 12
2 14
3 1.008

Atoms # charge

2705 1 2.5979631011933946e-01 8.0497406216232875e+01 8.4011124740308261e+01 7.9993052988890923e+01 -1 4 -2
4105 3 1.2043700183750242e-01 8.3425021195198994e+01 8.2528374722951398e+01 8.1411637189940862e+01 0 0 0
2706 2 -3.2390324300240336e-01 8.0925489692626414e+01 8.2850608464206076e+01 8.0500740669619475e+01 -1 4 -2
2709 1 -2.5424868557772373e-02 7.8700856391212966e+01 8.2464790784806254e+01 8.1559453404320266e+01 -1 4 -2
2710 1 2.6068165211234051e-01 8.0097861853338486e+01 8.2056284490810611e+01 8.1200453119857386e+01 -1 4 -2
2711 2 -2.9880794622008006e-01 8.0569568084560174e+01 8.0889201615822685e+01 8.1642056145062867e+01 -1 4 -2
4107 1 -7.7276043113516206e-03 8.3691880335220219e+01 8.4166387363175318e+01 8.2827097698507444e+01 0 0 0
68 1 -7.4114361441485088e-02 8.1938188882820768e+01 8.1320915229731398e+01 8.4673035222283261e+01 0 0 0
610 1 2.6728421796801793e-01 7.8964310666702090e+01 7.9396077173793628e+01 7.9020931837605815e+01 0 0 1
606 2 -2.6697630216952289e-01 7.8552084923591110e+01 8.0568210613153440e+01 7.8502209438643433e+01 0 0 1
609 1 3.4664433384662546e-03 8.0362957977408286e+01 7.8969884630329474e+01 7.8988921628245961e+01 0 0 1
4106 1 -6.7941304272061950e-02 8.2316005062899166e+01 8.4431236198333437e+01 8.3035337914441470e+01 0 0 0
4110 3 1.0522938426864938e-01 8.1492767315207416e+01 8.3813584522868638e+01 8.2656125260803790e+01 0 0 0
72 3 1.0574221499270535e-01 8.1162535286529732e+01 8.0632038576661472e+01 8.4388918718167119e+01 0 0 0
69 1 -1.3654525033148714e-02 8.3290840030544203e+01 8.1080384383302530e+01 8.4497912281264874e+01 0 0 0
70 1 2.4349478932051338e-01 8.4400073968928623e+01 8.1931223728702022e+01 8.5051687977167944e+01 0 0 0
63 1 -9.6754386431755143e-02 8.3617304651102302e+01 7.9919541940834819e+01 8.3799278800319513e+01 0 0 0
67 3 1.3548644485478570e-01 8.2891190991810504e+01 7.9398513423423296e+01 8.3307622787565094e+01 0 0 0
4101 1 -8.2201726080730939e-02 8.4133829326400232e+01 8.3161647022051582e+01 8.1921485082148024e+01 0 0 0
64 1 -2.4684870816703786e-02 8.4984266806204090e+01 7.9712909590512709e+01 8.3509515038567244e+01 0 0 0
603 1 -3.6690840838094665e-02 8.1286541633751298e+01 7.9832322170422486e+01 7.8330084264319893e+01 0 0 1
2714 1 -3.2722924863295380e-02 7.8429464684631284e+01 8.0273146814631644e+01 8.2660083772082771e+01 -1 4 -2
2715 1 2.5284810942107261e-01 7.9835802729504451e+01 7.9986760800330146e+01 8.2394175452048927e+01 -1 4 -2
2716 2 -3.2731331312571355e-01 8.0386914840628322e+01 7.8839106368735287e+01 8.2788931481622853e+01 -1 4 -2
2703 1 -6.9116802302810892e-02 7.8257958844818290e+01 8.3730270579095574e+01 8.1080861968752970e+01 -1 4 -2
605 1 2.7136382418504912e-01 7.9365799488629278e+01 8.1445917808537544e+01 7.7909956863920712e+01 0 0 1
607 3 8.4686040275269409e-02 8.2348549300420402e+01 7.9581935722753641e+01 7.8316690988632800e+01 0 0 1
611 2 -2.6544950183474952e-01 7.8174755598952871e+01 7.8497117324528702e+01 7.9661069703477338e+01 0 0 1
604 1 -3.5743048641759118e-03 8.0813274775758003e+01 8.1084092917078436e+01 7.7839954241230743e+01 0 0 1
4115 3 5.0107259173113303e-02 7.9808107912060422e+01 8.5423814179511865e+01 8.3605063451524103e+01 0 0 0
4112 1 -2.0044833224069029e-02 8.1944228086724053e+01 8.5514502951040754e+01 8.3900194772464658e+01 0 0 0
2704 1 -2.5454527466498636e-02 7.9090230120840616e+01 8.4527126673444585e+01 8.0247010819127155e+01 -1 4 -2
4109 2 -2.1276521968311418e-01 8.4349484606023395e+01 8.5855694658075805e+01 8.4382595186507260e+01 0 0 0
58 1 -6.9835289444580340e-02 8.5277043032251640e+01 7.8660967778892157e+01 8.2616329406586075e+01 0 0 0
2701 2 -3.0121508292152999e-01 8.1301229737048700e+01 8.4787064085861246e+01 7.9268229784402337e+01 -1 4 -2
4111 1 -5.3021463469276532e-02 8.0608906700958443e+01 8.5875888465284405e+01 8.4115227124137974e+01 0 0 0
4113 1 2.3645784655422603e-01 8.3048445158904286e+01 8.6279849760230107e+01 8.4502020550611107e+01 0 0 0
2698 1 -6.0055234114468697e-02 7.8542380379367074e+01 8.5690667931640220e+01 7.9628973823316585e+01 -1 4 -2
4117 1 -2.3929097854144665e-02 8.0390693642205349e+01 8.7155026448452006e+01 8.4754581208222334e+01 0 0 0
2551 3 7.2310243808657831e-02 8.1042529253683924e+01 8.7396966662369294e+01 8.0814366987748031e+01 0 0 0
4116 1 -5.7340091821120626e-02 7.9079289022827965e+01 8.7697456529897764e+01 8.4767426401073095e+01 0 0 0
4114 2 -1.9948475239457741e-01 8.2751240245851776e+01 8.7404769728144089e+01 8.5141014742034457e+01 0 0 0
2550 3 2.3553990391824514e-02 7.8595664502504846e+01 8.8239933844702790e+01 8.1362227050505922e+01 0 0 0
4118 1 2.4034396673176167e-01 8.1509885902317734e+01 8.7922775666393946e+01 8.5321579272391631e+01 0 0 0
2547 1 6.2714587557297710e-02 8.0865365756369727e+01 8.8353999519880475e+01 8.1314196602676645e+01 0 0 0
2700 1 2.4792224205199367e-01 8.0883706850581675e+01 8.5873522828601423e+01 7.8574089894604725e+01 -1 4 -2
2699 1 -1.8127157522640280e-02 7.9457463611011434e+01 8.6277966334648937e+01 7.8711895720322417e+01 -1 4 -2
4108 1 2.3085380091949867e-01 8.4749071938021842e+01 8.4962272451690438e+01 8.3553823478915248e+01 0 0 0
66 2 -2.6307815116582556e-01 8.5691161192004614e+01 8.1553839398169558e+01 8.4809747713910042e+01 0 0 0
2719 1 -2.1455671131935514e-02 7.8262745928117980e+01 7.8044085096268176e+01 8.3720143678423426e+01 -1 4 -2
62 3 5.4637295937008085e-02 8.4511321366018237e+01 7.7976483921265881e+01 8.2260552678319243e+01 0 0 0
2865 1 6.4094988127860561e-02 8.4772599874450961e+01 8.7559328060773026e+01 8.0837325127346858e+01 0 0 1
2869 3 1.2294699357622740e-01 8.4030052850006754e+01 8.7376778003164745e+01 8.1589839382859481e+01 0 0 1
2720 1 2.7650267403002410e-01 7.9744564248001936e+01 7.7860904112444430e+01 8.3455824558659671e+01 -1 4 -2
4119 2 -2.2292022969266126e-01 8.1305767056879816e+01 8.9099237257825592e+01 8.5947929714413846e+01 0 0 0
2693 1 -5.4045516348332732e-02 7.8969189526218884e+01 8.7403604977030653e+01 7.7988033494815781e+01 -1 4 -2
2868 3 1.0194812961580184e-01 8.5017261428017221e+01 8.5463137502462146e+01 8.0041856143616684e+01 0 0 1
2546 1 -6.5317267606232896e-02 7.9512360726174023e+01 8.8774839709669095e+01 8.1678988745371598e+01 0 0 0
4120 3 3.7356756185325676e-02 7.8311991549206908e+01 8.7208991338066923e+01 8.4271807655470695e+01 0 0 0
601 2 -2.9146472685974700e-01 7.8962211070912886e+01 8.2556879556197828e+01 7.7293895536387822e+01 0 0 1
77 3 5.3339696741697175e-02 7.9574924201826335e+01 8.2121962661502764e+01 8.5187135178639835e+01 0 0 0
2696 2 -2.6126278847456819e-01 8.1701668424076033e+01 8.6541907696763161e+01 7.7767808642989507e+01 -1 4 -2
71 2 -2.7968938186663334e-01 8.3993898864004876e+01 8.2938205938648366e+01 8.5786115101705292e+01 0 0 0
2708 1 -6.7286208551989926e-02 7.7929938333787305e+01 8.1565132547494017e+01 8.2260058671858843e+01 -1 4 -2
2702 3 7.8255031377641837e-02 7.7563112099647697e+01 8.6106844999253738e+01 7.9885604004026860e+01 -1 4 -2
2697 3 8.0563385239286439e-02 7.8021541323442065e+01 8.7869003610358916e+01 7.8106231193666005e+01 -1 4 -2
2713 1 -4.9239853870958528e-02 7.7631513085634438e+01 7.9235695183211902e+01 8.3221659022199574e+01 -1 4 -2
2864 1 -5.5537062564076214e-02 8.5347515637583300e+01 8.6503405642839766e+01 8.0082604242058409e+01 0 0 1
4100 3 6.4678859298680766e-02 8.5308963169333680e+01 8.1205234578564031e+01 8.0392020316944397e+01 0 0 0
4102 1 -1.8746033804865135e-02 8.5514352209208937e+01 8.2888285747938255e+01 8.1753028995728997e+01 0 0 0
2866 2 -1.9151670156275144e-01 8.5142562093723853e+01 8.8829743486040144e+01 8.0745053446434127e+01 0 0 1
4096 1 -5.8305761608222428e-02 8.5973571266912700e+01 8.1848055660714209e+01 8.0876267201251537e+01 0 0 0
4104 2 -2.0717906679170275e-01 8.6076655145559997e+01 8.4654320451904624e+01 8.3354362482392588e+01 0 0 0
65 1 2.4031576101736557e-01 8.6106812374770954e+01 8.0578435222511871e+01 8.3952851905374445e+01 0 0 0
598 1 -5.2227220641996225e-02 8.1747192802213092e+01 8.1978357783099199e+01 7.7280897607354262e+01 0 0 1
4122 1 -2.4832801861841450e-02 7.8946988007648585e+01 8.8911543489688128e+01 8.5459723271250994e+01 0 0 0
2695 1 2.4501067278928421e-01 8.1321273888257991e+01 8.7696239454362399e+01 7.7170144593422876e+01 -1 4 -2
2694 1 -1.0859699141744634e-02 7.9914112616631286e+01 8.8165493514288571e+01 7.7285876595302781e+01 -1 4 -2
74 1 -3.6235939277955043e-02 8.1667359433811157e+01 8.2484110356822484e+01 8.5440403825921649e+01 0 0 0
3750 1 2.4564407224317025e-01 8.5852744156678284e+01 8.8925500018572976e+01 8.4975889899115316e+01 0 0 0
73 1 -7.0113086274826306e-02 8.0292816969024003e+01 8.2780156484552762e+01 8.5657724605029387e+01 0 0 0
608 1 -4.4913647044714185e-02 8.0882886775040603e+01 7.7784597626736186e+01 7.9565939984671644e+01 0 0 1
3751 2 -2.1449817860766768e-01 8.5018997893219392e+01 8.8871149066217555e+01 8.5990756952702810e+01 0 0 0
75 1 2.3806172131112047e-01 8.2721897654933713e+01 8.3299621577053244e+01 8.6056366726189509e+01 0 0 0
2438 3 4.6465428188310523e-02 8.5016611368720348e+01 8.0270436559074028e+01 7.7611821607804657e+01 0 0 1
602 3 9.6438446558084034e-02 8.2774929590236610e+01 8.1796497868965062e+01 7.7307962896696083e+01 0 0 1
2872 1 2.6221367163469572e-01 8.6174320750508258e+01 8.9253998552234975e+01 7.9986285307444462e+01 0 0 1
612 3 8.6301307960900742e-02 8.1921984263697126e+01 7.7585358667895918e+01 7.9554466832011457e+01 0 0 1
615 1 2.5596772876029161e-01 7.8557608305344061e+01 7.7329440877001417e+01 8.0187716713186745e+01 0 0 1
2707 3 8.8968748286093788e-02 7.7291947388707555e+01 8.4114368308179451e+01 8.1291178921746678e+01 -1 4 -2
2436 1 9.0181186368407940e-02 8.6080057410193859e+01 8.0447202405725804e+01 7.7397031664221004e+01 0 0 1
2548 2 -2.2936784497206117e-01 8.1983633326352873e+01 8.9012623202427918e+01 8.1621401530788646e+01 0 0 0
82 3 3.4301906094213908e-02 7.7782571713976267e+01 8.3790930529564633e+01 8.6055438534282189e+01 0 0 0
3324 1 -7.2645975501240273e-02 9.3841670429101185e+01 8.8294518214834341e+01 8.1122709743269027e+01 0 0 0
3725 1 2.4975440950013172e-01 9.3480048696978031e+01 8.3564429484120552e+01 7.7826869766516921e+01 0 0 0
2618 1 1.4916295448122428e-02 9.5151723379915296e+01 8.0580873875963533e+01 8.2000314770584495e+01 0 1 0
3331 1 2.6556380842717459e-01 9.3824439373684854e+01 8.5803947483713642e+01 8.1510267345894206e+01 0 0 0
3330 1 -2.8540882018204580e-02 9.3212197689581927e+01 8.7147732092037231e+01 8.1673845058413008e+01 0 0 0
2617 1 -7.6770227386779716e-02 9.5375636272655854e+01 8.1780297802791679e+01 8.1310972779817050e+01 0 1 0
3721 2 -2.9385954782187174e-01 9.3994155796803270e+01 8.2453195776464455e+01 7.7350613048573422e+01 0 0 0
4094 2 -1.7390670559184809e-01 8.9600465138339899e+01 8.2372565717009479e+01 8.1316073382472467e+01 0 0 0
3746 2 -2.4018628179885018e-01 8.6411485574577299e+01 8.7852898322839309e+01 8.4359010541649369e+01 0 0 0
3926 2 -2.5566920886269950e-01 9.2573164277754586e+01 8.9131929408761266e+01 8.4710982120999816e+01 1 -1 0
3339 1 -6.6370938551747596e-02 8.8862413520854872e+01 8.5232203584434430e+01 8.5498339217718183e+01 0 0 0
3333 3 8.7002322837976098e-02 9.1534673891654592e+01 8.8284422591049236e+01 8.2438326900605063e+01 0 0 0
2870 1 -7.9533297500686620e-02 8.8020595915047039e+01 8.8596705978383596e+01 7.8406590784638709e+01 0 0 1
2428 2 -2.6692596573990846e-01 8.8007159882793786e+01 8.3404538979277007e+01 7.7278158995482372e+01 0 0 1
3334 1 -5.4000895502610335e-02 9.0438296599829826e+01 8.6344709494130512e+01 8.3961250834755546e+01 0 0 0
4088 1 2.5197099378336857e-01 9.2044945822924944e+01 8.0325803330771393e+01 7.9657754305409156e+01 0 0 0
3325 1 -3.8469196985540195e-02 9.5153238783287975e+01 8.8103466162717453e+01 8.0564419029914802e+01 0 0 0
3563 1 2.4893422916919214e-01 9.5321177780672031e+01 8.3278330605509908e+01 8.6015930223541034e+01 0 0 0
3559 2 -2.7822717323009305e-01 9.4033389860826631e+01 8.3776374832557465e+01 8.6062088885499577e+01 0 0 0
3327 2 -3.3481262233080944e-01 9.4965707584821331e+01 8.5701671319662168e+01 8.0835039609216565e+01 0 0 0
2616 3 1.6654162207534143e-01 9.3282404256146236e+01 8.1182578313346326e+01 8.2937850732291267e+01 0 1 0
3328 3 6.5536784004459725e-02 9.3474642481205080e+01 8.9215792255968722e+01 8.1246366079067229e+01 0 0 0
60 1 2.3249653663553779e-01 8.7708758233496638e+01 7.9312570786904956e+01 8.2761166061651338e+01 0 0 0
2621 3 1.7080848641514576e-01 9.4617863501406745e+01 8.2560345337005288e+01 8.1345378649513449e+01 0 1 0
4103 1 2.2754364124064463e-01 8.6487512430291488e+01 8.3724492145392162e+01 8.2497516450308368e+01 0 0 0
55 1 2.4226350411572140e-01 8.9253916088952195e+01 7.7983661857930542e+01 8.1580815187309014e+01 0 0 0
3726 2 -2.5533387342712521e-01 9.2319880408420204e+01 8.3589592629931602e+01 7.8470951988774601e+01 0 0 0
59 1 -3.7002667211843178e-02 8.6614728611554000e+01 7.8492264261204696e+01 8.2232466783201588e+01 0 0 0
2614 1 2.3551003700021209e-01 9.4694304452937843e+01 7.8061568493648664e+01 8.3048961274033402e+01 0 1 0
3335 1 -6.3767844164763013e-03 9.1543682355727086e+01 8.6175490218694193e+01 8.3095827334725968e+01 0 0 0
4081 1 -6.4521542482856645e-02 9.1850311872279235e+01 7.8667481074997227e+01 7.7811701041441040e+01 0 0 0
3735 1 2.4207927764389101e-01 8.9975367952801221e+01 8.5843000434091948e+01 8.0106366096070460e+01 0 0 0
3734 1 -3.5297679936676873e-02 9.0528831222795105e+01 8.7153864104373639e+01 7.9640211613359241e+01 0 0 0
2455 3 5.5942386936884858e-02 9.3914730339654596e+01 8.9310342744233282e+01 7.8205149751079901e+01 1 -2 1
3733 1 -6.1523488822006971e-02 9.0016328619109444e+01 8.8299263700393638e+01 8.0206382902380810e+01 0 0 0
3745 1 2.2568206517279304e-01 8.7240608786558596e+01 8.7924595456491545e+01 8.3294819427195634e+01 0 0 0
2867 3 1.4526629569488875e-01 8.6970025118419201e+01 8.6094353928587154e+01 7.8737155734840186e+01 0 0 1
4086 1 -6.2591428786716058e-02 8.9781518729427006e+01 7.9632237807858061e+01 7.8795235437302821e+01 0 0 0
3740 1 2.3514606370852673e-01 8.8592596232886990e+01 8.6847665248716822e+01 8.1692544754625445e+01 0 0 0
51 2 -2.7196065286111309e-01 9.0533674965523630e+01 7.7687886531553985e+01 8.1349401972721481e+01 0 0 0
3736 2 -2.6746981325054270e-01 8.9107346780312071e+01 8.5811020299535684e+01 8.1097361440823136e+01 0 0 0
3732 3 6.2504872609207618e-02 9.2022242569802472e+01 8.8138076743598702e+01 7.8409811452426993e+01 0 0 0
4091 1 -5.9805371798567243e-02 8.7882366486359658e+01 8.0681676011813622e+01 7.9772911124692740e+01 0 0 0
2871 1 2.4024886332065475e-03 8.6912895202362520e+01 8.8211554665225634e+01 7.9187700407681973e+01 0 0 1
2607 1 -7.8809852625177326e-02 9.2396222303894831e+01 7.8719203407229671e+01 8.3804617060634115e+01 0 1 0
3739 1 -4.1435176179345001e-02 8.9003534354493638e+01 8.8201829283812600e+01 8.1180644691501527e+01 0 0 0
2863 1 -5.1211647778627363e-02 8.6412519434889887e+01 8.6853329178420580e+01 7.9252835665073093e+01 0 0 1
2606 3 8.6340269136709724e-02 8.9981156545415928e+01 7.7465887610912560e+01 8.4721751213258528e+01 0 1 0
3727 3 5.7492148570441978e-02 9.4008370350169400e+01 8.6957288565706776e+01 7.7421754932767215e+01 0 0 0
56 2 -2.8036674984018412e-01 8.8940459708491375e+01 7.9054193435417844e+01 8.2316230247229129e+01 0 0 0
3345 1 -3.9389948108631626e-03 8.8492662253184619e+01 8.4096043786518322e+01 8.6230111374079740e+01 0 0 0
4079 2 -2.3288018757111117e-01 9.5383646561994709e+01 7.9224985554514461e+01 7.8863255197579107e+01 0 0 0
3341 1 2.5848662686375157e-01 9.0667231135241963e+01 8.3877786888770942e+01 8.4436884833023257e+01 0 0 0
3337 2 -2.1417011984039688e-01 9.1656466795409045e+01 8.3751523963901022e+01 8.3536511945032530e+01 0 0 0
3343 3 1.5323590961058406e-01 8.8403216408253172e+01 8.6158754706809731e+01 8.5629032655782382e+01 0 0 0
2613 1 -7.5890298949625457e-04 9.3651612593380008e+01 7.9096804152938944e+01 8.3226120161228863e+01 0 1 0
61 2 -2.4955868562248285e-01 8.7360591828275915e+01 8.0328660506177144e+01 8.3627703594543092e+01 0 0 0
2608 1 -1.3862163672596975e-02 9.2015598793680283e+01 7.7372084146111902e+01 8.3992025120850030e+01 0 1 0
3346 1 2.4774032059838180e-01 8.9221201655884059e+01 8.2836585661141768e+01 8.6017576917825309e+01 0 0 0
2611 3 1.3297095992080282e-01 9.1722641637445122e+01 7.9503679301655978e+01 8.4059404376889304e+01 0 1 0
3729 1 -2.1745504616178239e-02 9.2252213448501038e+01 8.6037176422368262e+01 7.8383939235791161e+01 0 0 0
3336 1 2.5695849420247369e-01 9.2131413093121708e+01 8.4860310884633847e+01 8.2868315650104051e+01 0 0 0
4099 2 -1.7898117291575144e-01 8.7804069287547435e+01 8.3442775358324752e+01 8.2350613564025934e+01 0 0 0
3329 1 -5.4412256194094157e-02 9.2069509109355550e+01 8.7327809820624807e+01 8.2470347208549441e+01 0 0 0
3741 2 -2.5836905780060698e-01 8.7655849004693934e+01 8.6813328775555604e+01 8.2677724939762214e+01 0 0 0
4087 1 -1.5538121417403360e-02 9.1199318726882964e+01 7.9529904496797883e+01 7.8710840261198115e+01 0 0 0
4095 3 8.0295708771795121e-02 8.7247854904355620e+01 8.0052721936885320e+01 7.9251806888590096e+01 0 0 0
3340 1 1.9573696376186923e-02 9.0005189296414258e+01 8.5195181910378423e+01 8.4610013303408167e+01 0 0 0
2874 3 1.4202494601750848e-01 8.8563700490601406e+01 8.7804284045933301e+01 7.7935523732750312e+01 0 0 1
3332 2 -2.7813650760004482e-01 9.3218230975944408e+01 8.4748624218804395e+01 8.2110237825655787e+01 0 0 0
4082 1 -2.9578458550246767e-03 9.3263984799991078e+01 7.8659259900385464e+01 7.7743509696189335e+01 0 0 0
3925 1 6.4508869417301912e-02 9.3674182168149272e+01 8.8416889346004552e+01 8.4418475162014204e+01 1 -1 0
4097 1 -4.9992704201705304e-03 8.7355514346895689e+01 8.1672612040158597e+01 8.0630711806586973e+01 0 0 0
3924 1 -8.9422128569166662e-02 9.4801864715639226e+01 8.8890294348844463e+01 8.3677039628882781e+01 1 -1 0
4089 2 -2.3100449213068491e-01 9.1480165554609016e+01 8.1214622078490805e+01 8.0460695173733029e+01 0 0 0
3929 3 7.7494279106793240e-02 9.3692808858129013e+01 8.7425300515372655e+01 8.4919134139863871e+01 1 -1 0
4083 1 2.5095392279855944e-01 9.4053951529052569e+01 7.9375087990964559e+01 7.8769855918237340e+01 0 0 0
2612 1 -7.6547589040779934e-02 9.3924032653653015e+01 8.0388518741166394e+01 8.2745955146227345e+01 0 1 0
3338 3 1.3271358908662562e-01 8.9953483049026389e+01 8.7273959558947070e+01 8.4189801004461543e+01 0 0 0
3723 1 -5.0861167680990860e-02 9.3495873613828792e+01 8.6059055587646554e+01 7.7643929716852355e+01 0 0 0
4090 3 7.8515793675366527e-02 8.9093516370897362e+01 7.9081277356937122e+01 7.8193115203702320e+01 0 0 0
3730 1 2.4402416839698671e-01 9.1701629957164258e+01 8.4744387897909860e+01 7.8856273466139029e+01 0 0 0
4098 1 2.2491104189042410e-01 8.8251785270225213e+01 8.2511685928786108e+01 8.1445368881735035e+01 0 0 0
4084 2 -2.4528252006247719e-01 9.3380683202487432e+01 8.0151360709296313e+01 7.9657728067748778e+01 0 0 0
4092 1 -8.5166514021629419e-03 8.9273139066820434e+01 8.0528540975883729e+01 7.9742565157014539e+01 0 0 0
3724 1 -3.0160220960475544e-02 9.4176986726042458e+01 8.4860408382255685e+01 7.7427104532686116e+01 0 0 0
3342 2 -2.3933639482765001e-01 9.0215667666704405e+01 8.2803417611323866e+01 8.5108340310432425e+01 0 0 0
3728 1 -4.3992137311734555e-02 9.1608359301998661e+01 8.7213408335584148e+01 7.8697952986137366e+01 0 0 0
4093 1 2.4526610597953427e-01 9.0149916079704013e+01 8.1435269910178803e+01 8.0542036727945799e+01 0 0 0
3731 2 -2.2658250376893463e-01 9.0599004410525254e+01 8.4738712199938888e+01 7.9604632597670729e+01 0 0 0
53 1 -7.1357134985492912e-02 8.6791122760539309e+01 7.7405328954972120e+01 8.1357940555166792e+01 0 0 0
2433 2 -2.9148266937803224e-01 8.6467993208169787e+01 8.1691744930583397e+01 7.7520535624625367e+01 0 0 1
3744 1 -1.5086394758983841e-02 8.7663796033735920e+01 8.9275442663177344e+01 8.2841499768284777e+01 0 0 0
3737 3 4.3921160465400420e-02 9.0289467727638851e+01 8.9305439934791153e+01 7.9878545178462673e+01 0 0 0
2432 1 2.6771001504876862e-01 8.7644843085504476e+01 8.2140415337384610e+01 7.7138920662639535e+01 0 0 1
4085 3 1.1017969533896416e-01 9.1221255308708791e+01 7.8056732477622234e+01 7.7137190014484929e+01 0 0 0
1815 1 -7.0347913336661710e-02 8.0310459091943770e+01 8.0275763548502212e+01 8.7211110148661746e+01 1 -1 1
80 1 2.3429209877738810e-01 8.1120132115228628e+01 8.4698027797014319e+01 8.7046509001701850e+01 0 0 0
1821 1 -2.5071558936591493e-02 8.1357764705081891e+01 7.9354617388332827e+01 8.7064123589421342e+01 1 -1 1
84 1 -2.9491121946543047e-02 7.8434715637285365e+01 8.5445070338611075e+01 8.7341534483740475e+01 0 0 0
81 2 -2.2028678429652385e-01 8.0783556598003727e+01 8.5786815275032239e+01 8.7743410780096184e+01 0 0 0
85 1 2.3258956945587034e-01 7.9518636901775594e+01 8.6294364584247376e+01 8.7882178984208338e+01 0 0 0
86 2 -2.3118842401600845e-01 7.9291293150514790e+01 8.7481591550076701e+01 8.8417157398811071e+01 0 0 0
4001 1 -2.9767687422268027e-02 7.8808375482814569e+01 8.3008310032406612e+01 9.0832496362256222e+01 1 0 0
3995 1 -5.8703030905095398e-02 8.0035843123685439e+01 8.2303345342122867e+01 9.1031993939878731e+01 1 0 0
3999 3 5.7271542213465837e-02 8.0904244152823694e+01 8.2893335100947525e+01 9.1215314666001774e+01 1 0 0
3997 1 2.5645330035465397e-01 7.8946030903802480e+01 8.0151014802574409e+01 9.0401723612909620e+01 1 0 0
3996 1 -2.8239763039993315e-02 8.0179084133060002e+01 8.0927651739989628e+01 9.0733679456445003e+01 1 0 0
4000 1 -6.6754812803575647e-02 7.8628108793723015e+01 8.4410962409240412e+01 9.0932740623363813e+01 1 0 0
3363 3 4.0554272596974077e-02 8.4103350433350826e+01 8.1882776159163072e+01 9.3411037997775665e+01 0 0 0
2008 1 2.6293501979641482e-01 7.9301197919548443e+01 7.8821685750217455e+01 9.3618488014604225e+01 1 0 -1
3365 1 -5.9849796899433816e-02 8.4497037118467162e+01 7.9819000094221707e+01 9.3859983564791136e+01 0 0 0
4004 3 9.1693462371624096e-02 7.9485430961861098e+01 8.5035477986893682e+01 9.1104564044049937e+01 1 0 0
2007 1 -2.2828988538961394e-02 8.0700147462616798e+01 7.9311896047244744e+01 9.3791411823465637e+01 1 0 -1
2004 2 -2.8030846545200139e-01 7.8335519719214517e+01 7.9723653285232629e+01 9.3707248329861955e+01 1 0 -1
2001 1 -5.3943220326748198e-02 8.0959495223249675e+01 8.0646667922200592e+01 9.4192464103442774e+01 1 0 -1
2003 1 2.7238153540303250e-01 7.8509458042976590e+01 8.0998359313274349e+01 9.4020540193150978e+01 1 0 -1
2002 1 -1.9252294429197368e-02 7.9889725713058283e+01 8.1515885014617680e+01 9.4332383926704480e+01 1 0 -1
1996 1 -4.7044804748409060e-02 8.0135523102951097e+01 8.2830137226848137e+01 9.4728529888902386e+01 1 0 -1
3359 1 -6.1465243048037257e-02 8.4513108279433624e+01 8.0966614907845610e+01 9.3024159806951914e+01 0 0 0
2005 3 5.2813333914429335e-02 8.1951427841221559e+01 8.0942226549382141e+01 9.4482137879736499e+01 1 0 -1
3990 1 -6.2037389492432080e-02 8.1471938478848216e+01 8.0341256683160353e+01 9.0631590632723018e+01 1 0 0
3991 1 -2.7841569952325246e-02 8.1471523399196570e+01 7.8909918681204374e+01 9.0393283487811445e+01 1 0 0
3360 1 -3.7807107101982700e-02 8.5109171673928444e+01 8.0916421975970337e+01 9.1737542644566020e+01 0 0 0
3993 2 -2.7745700248724586e-01 7.9120902254978333e+01 7.8818859683298982e+01 9.0151712321345158e+01 1 0 0
3994 3 5.5998942394948882e-02 8.2361076432806257e+01 8.0834398791626981e+01 9.0880004158577307e+01 1 0 0
3366 1 2.6648744956832870e-01 8.5242402004280365e+01 7.8618172360803356e+01 9.3386960974970080e+01 0 0 0
3358 3 7.3322260339646811e-02 8.4457944844692449e+01 8.2825483326503601e+01 9.1066971749880921e+01 0 0 0
3354 1 -6.6588791839482284e-02 8.5047331706626508e+01 8.1991354822714882e+01 9.0812176933787640e+01 0 0 0
3989 3 8.0741286502972881e-02 8.3636557102499069e+01 7.8907606853078676e+01 9.0346045203561061e+01 1 0 0
897 1 -4.0448411441869406e-02 8.4351240615703134e+01 8.5768106527810275e+01 9.3414732474295903e+01 0 0 0
891 1 -4.9631964318727018e-02 8.3133606224286041e+01 8.6234082249394262e+01 9.3909738426196725e+01 0 0 0
3985 1 -6.7033498422352636e-02 8.2740555060149447e+01 7.8299427168261559e+01 9.0265865643900597e+01 1 0 0
2010 3 8.2835810730554432e-02 8.2769415223475960e+01 7.8673737841120996e+01 9.3544477747921619e+01 1 0 -1
2006 1 -4.5311935054945254e-02 8.1730652675884514e+01 7.8365242393761520e+01 9.3557489672475441e+01 1 0 -1
1816 1 -2.1546723611106537e-02 7.8972453370813824e+01 7.9816080856642529e+01 8.7350716087377606e+01 1 -1 1
900 3 4.6423118752735575e-02 8.4240367888818184e+01 8.3895591508707128e+01 9.4395098940299789e+01 0 0 0
1817 1 2.4286811051214283e-01 7.8669258720270236e+01 7.8346239444237611e+01 8.7217997923502608e+01 1 -1 1
3364 1 -6.3460041932035860e-02 8.3951213096026933e+01 7.9829727414980752e+01 9.5191695557283310e+01 0 0 0
892 1 -3.3963193417964103e-02 8.2793201696794412e+01 8.7578720548434234e+01 9.3567913215153595e+01 0 0 0
886 1 -4.7009379114328495e-02 8.1617208475765409e+01 8.8136655446144545e+01 9.4081640248153278e+01 0 0 0
1997 1 -1.8505606903063382e-02 7.8970241489004266e+01 8.3644928805114347e+01 9.4917906483752148e+01 1 0 -1
3992 1 2.6601201211803915e-01 8.0225273694252436e+01 7.8118582105258128e+01 9.0133320954677203e+01 1 0 0
76 2 -2.5526961724273217e-01 8.2374776688832682e+01 8.4351674717621535e+01 8.6821903876228859e+01 0 0 0
894 2 -3.1058454933847984e-01 8.4826609416214538e+01 8.7824589479115616e+01 9.2274560391964926e+01 0 0 0
896 1 -5.6104636616142491e-02 8.4815836339330133e+01 8.4461894122968715e+01 9.3696167147672725e+01 0 0 0
1810 1 -5.2942120362797510e-02 7.7901743304915783e+01 8.0709065695990148e+01 8.7622173747112484e+01 1 -1 1
1814 3 6.8243971210413257e-02 7.8116989771847130e+01 8.1786777596121311e+01 8.7763375756443139e+01 1 -1 1
1829 3 1.2037348403756158e-01 8.5472483542773602e+01 7.9763330437465569e+01 8.6877384096200146e+01 1 -1 1
1824 3 7.8917663365035043e-02 8.3118993441181829e+01 8.0644495557317214e+01 8.7248434031262036e+01 1 -1 1
1820 1 -6.6348546648185666e-02 8.2761231083953362e+01 7.9599117453085469e+01 8.7203088221760765e+01 1 -1 1
1826 1 -2.7330941707466125e-02 8.3672207287600500e+01 7.8563007313585814e+01 8.7044692265925065e+01 1 -1 1
3998 2 -2.6830395460097478e-01 7.7770284119548691e+01 8.0761781411778600e+01 9.0460957584858562e+01 1 0 0
2000 3 4.4824567199478950e-02 8.1088295312262417e+01 8.3240232680129196e+01 9.4929557159623727e+01 1 0 -1
898 1 2.5629293875330217e-01 8.5191480286199095e+01 8.6526456713192999e+01 9.2514246283978949e+01 0 0 0
4009 3 9.4044168675127202e-02 7.7857181335390791e+01 8.6855275448319247e+01 9.1687745432362419e+01 1 0 0
4002 1 2.5237006583186045e-01 7.7628299412186166e+01 8.2122056989218066e+01 9.0568793749607835e+01 1 0 0
2009 2 -2.5646472473580811e-01 7.9082050081178039e+01 7.7494943430761907e+01 9.3470216205376545e+01 1 0 -1
1825 1 -7.7346394337183197e-02 8.5088619250465413e+01 7.8747017803549355e+01 8.6965065386856850e+01 1 -1 1
902 1 -3.6625914108821454e-02 8.6031982945253858e+01 8.3969421998837845e+01 9.3182085061289499e+01 0 0 0
905 3 8.9225595655287121e-02 8.6142105378231165e+01 8.2150675551155445e+01 9.4309264551785702e+01 0 0 0
1819 3 8.0606413725557907e-02 8.0550772004628044e+01 8.1309176052367789e+01 8.7272726887490549e+01 1 -1 1
3353 3 1.1680156159820890e-01 8.5475024406015734e+01 8.3912983395397418e+01 8.8934517279282787e+01 0 0 0
90 1 2.3511166315598359e-01 7.8139686200156149e+01 8.8025479555174513e+01 8.8526775680341615e+01 0 0 0
3367 2 -3.6270338451351453e-01 8.5300757144167292e+01 7.7565431480657267e+01 9.4202799905980015e+01 0 0 0
893 1 2.6592492883667407e-01 8.3740858918468376e+01 8.8394855845180103e+01 9.2786083039879145e+01 0 0 0
1998 1 2.5765413508528390e-01 7.7632451202913117e+01 8.3108120988965453e+01 9.4606282515219647e+01 1 0 -1
1827 1 2.2824882384936956e-01 8.3162792996836529e+01 7.7169555570554706e+01 8.6888339686580252e+01 1 -1 1
1991 1 -5.8381484964273464e-02 7.9161090013491659e+01 8.4966353077642168e+01 9.5327588947513235e+01 1 0 -1
78 1 -5.3289471241031866e-02 7.8651561304338813e+01 8.4332658169541745e+01 8.6504105012456321e+01 0 0 0
1818 2 -2.2136125937711004e-01 7.9689241595589039e+01 7.7500555672271389e+01 8.6952977551072152e+01 1 -1 1
3355 1 -2.8426595693287954e-02 8.5887096214188361e+01 8.1957667321756688e+01 8.9687198844572677e+01 0 0 0
3362 2 -3.6564830208428806e-01 8.5823177662522852e+01 7.8640244166797146e+01 9.2169644299066888e+01 0 0 0
3361 1 2.6314288158373406e-01 8.5809368318106578e+01 7.9645912458522446e+01 9.1344533931649011e+01 0 0 0
91 2 -2.2271933116983095e-01 7.7888801903867886e+01 8.9313689267844381e+01 8.8943712362944595e+01 0 0 0
1813 2 -2.5111919451400294e-01 7.7434328841534139e+01 7.7883671951109733e+01 8.7360042142444428e+01 1 -1 1
1822 1 2.2943970668487662e-01 8.0953529181266617e+01 7.7897171583652749e+01 8.6912831941658126e+01 1 -1 1
2813 3 1.4246816623831182e-01 8.6231194443899867e+01 8.8143538658847149e+01 8.9615935718121904e+01 0 0 -1
890 3 3.9368668947605587e-02 8.0934772746672536e+01 8.7578637647068760e+01 9.4710601512236920e+01 0 0 0
3349 1 -6.1451967914450664e-02 8.6105843669209136e+01 8.3047568493298897e+01 8.8784614237822694e+01 0 0 0
1999 2 -2.7275910890049260e-01 7.7478123139112839e+01 8.1847266189590954e+01 9.4126086759995047e+01 1 0 -1
1831 1 -1.8875303605354075e-02 8.5932190650576288e+01 7.7613432743796224e+01 8.6968957152007064e+01 1 -1 1
895 3 3.7726271036848100e-02 8.2483484037029385e+01 8.5569956648666846e+01 9.4443069450641019e+01 0 0 0
3371 1 2.6124273225337352e-01 8.4703410092041267e+01 7.7489167104208619e+01 9.5411128338199632e+01 0 0 0
79 1 -3.3664858426574754e-02 8.0002505156626469e+01 8.3943481874282313e+01 8.6393854128618258e+01 0 0 0
4006 1 -2.3995916683909858e-02 7.7326137060611984e+01 8.4921079575106191e+01 9.0945676611301991e+01 1 0 0
3558 1 2.5630106112156376e-01 9.3668880375085934e+01 8.4994919180188845e+01 8.6483966651881872e+01 0 0 0
3554 2 -3.0983256269605802e-01 9.2446425706754994e+01 8.5499004728667828e+01 8.6396335286697521e+01 0 0 0