# LAMMPS data file written by Ovito Basic 3.0.0-dev791
3077 atoms
3 atom types
0.0 60.0 xlo xhi
0.0 60.0 ylo yhi
0.0 60.0 zlo zhi

Atoms  # charge

1 1 0.0 17.88321 21.92214 30.0
2 1 0.0 17.88321 25.96107 25.96107
3 1 0.0 17.88321 25.96107 30.0
4 1 0.0 17.88321 25.96107 34.03893
5 1 0.0 17.88321 30.0 21.92214
6 1 0.0 17.88321 30.0 25.96107
7 1 0.0 17.88321 30.0 30.0
8 1 0.0 17.88321 30.0 34.03893
9 1 0.0 17.88321 30.0 38.07786
10 1 0.0 17.88321 34.03893 25.96107
11 1 0.0 17.88321 34.03893 30.0
12 1 0.0 17.88321 34.03893 34.03893
13 1 0.0 17.88321 38.07786 30.0
14 1 0.0 21.92214 17.88321 30.0
15 1 0.0 21.92214 21.92214 21.92214
16 1 0.0 21.92214 21.92214 25.96107
17 1 0.0 21.92214 21.92214 30.0
18 1 0.0 21.92214 21.92214 34.03893
19 1 0.0 21.92214 21.92214 38.07786
20 1 0.0 21.92214 25.96107 21.92214
21 1 0.0 21.92214 25.96107 25.96107
22 1 0.0 21.92214 25.96107 30.0
23 1 0.0 21.92214 25.96107 34.03893
24 1 0.0 21.92214 25.96107 38.07786
25 1 0.0 21.92214 30.0 17.88321
26 1 0.0 21.92214 30.0 21.92214
27 1 0.0 21.92214 30.0 25.96107
28 1 0.0 21.92214 30.0 30.0
29 1 0.0 21.92214 30.0 34.03893
30 1 0.0 21.92214 30.0 38.07786
31 1 0.0 21.92214 30.0 42.11679
32 1 0.0 21.92214 34.03893 21.92214
33 1 0.0 21.92214 34.03893 25.96107
34 1 0.0 21.92214 34.03893 30.0
35 1 0.0 21.92214 34.03893 34.03893
36 1 0.0 21.92214 34.03893 38.07786
37 1 0.0 21.92214 38.07786 21.92214
38 1 0.0 21.92214 38.07786 25.96107
39 1 0.0 21.92214 38.07786 30.0
40 1 0.0 21.92214 38.07786 34.03893
41 1 0.0 21.92214 38.07786 38.07786
42 1 0.0 21.92214 42.11679 30.0
43 1 0.0 25.96107 17.88321 25.96107
44 1 0.0 25.96107 17.88321 30.0
45 1 0.0 25.96107 17.88321 34.03893
46 1 0.0 25.96107 21.92214 21.92214
47 1 0.0 25.96107 21.92214 25.96107
48 1 0.0 25.96107 21.92214 30.0
49 1 0.0 25.96107 21.92214 34.03893
50 1 0.0 25.96107 21.92214 38.07786
51 1 0.0 25.96107 25.96107 17.88321
52 1 0.0 25.96107 25.96107 21.92214
53 1 0.0 25.96107 25.96107 25.96107
54 1 0.0 25.96107 25.96107 30.0
55 1 0.0 25.96107 25.96107 34.03893
56 1 0.0 25.96107 25.96107 38.07786
57 1 0.0 25.96107 25.96107 42.11679
58 1 0.0 25.96107 30.0 17.88321
59 1 0.0 25.96107 30.0 21.92214
60 1 0.0 25.96107 30.0 25.96107
61 1 0.0 25.96107 30.0 30.0
62 1 0.0 25.96107 30.0 34.03893
63 1 0.0 25.96107 30.0 38.07786
64 1 0.0 25.96107 30.0 42.11679
65 1 0.0 25.96107 34.03893 17.88321
66 1 0.0 25.96107 34.03893 21.92214
67 1 0.0 25.96107 34.03893 25.96107
68 1 0.0 25.96107 34.03893 30.0
69 1 0.0 25.96107 34.03893 34.03893
70 1 0.0 25.96107 34.03893 38.07786
71 1 0.0 25.96107 34.03893 42.11679
72 1 0.0 25.96107 38.07786 21.92214
73 1 0.0 25.96107 38.07786 25.96107
74 1 0.0 25.96107 38.07786 30.0
75 1 0.0 25.96107 38.07786 34.03893
76 1 0.0 25.96107 38.07786 38.07786
77 1 0.0 25.96107 42.11679 25.96107
78 1 0.0 25.96107 42.11679 30.0
79 1 0.0 25.96107 42.11679 34.03893
80 1 0.0 30.0 17.88321 21.92214
81 1 0.0 30.0 17.88321 25.96107
82 1 0.0 30.0 17.88321 30.0
83 1 0.0 30.0 17.88321 34.03893
84 1 0.0 30.0 17.88321 38.07786
85 1 0.0 30.0 21.92214 17.88321
86 1 0.0 30.0 21.92214 21.92214
87 1 0.0 30.0 21.92214 25.96107
88 1 0.0 30.0 21.92214 30.0
89 1 0.0 30.0 21.92214 34.03893
90 1 0.0 30.0 21.92214 38.07786
91 1 0.0 30.0 21.92214 42.11679
92 1 0.0 30.0 25.96107 17.88321
93 1 0.0 30.0 25.96107 21.92214
94 1 0.0 30.0 25.96107 25.96107
95 1 0.0 30.0 25.96107 30.0
96 1 0.0 30.0 25.96107 34.03893
97 1 0.0 30.0 25.96107 38.07786
98 1 0.0 30.0 25.96107 42.11679
99 1 0.0 30.0 30.0 17.88321
100 1 0.0 30.0 30.0 21.92214
101 1 0.0 30.0 30.0 25.96107
102 1 0.0 30.0 30.0 30.0
103 1 0.0 30.0 30.0 34.03893
104 1 0.0 30.0 30.0 38.07786
105 1 0.0 30.0 30.0 42.11679
106 1 0.0 30.0 34.03893 17.88321
107 1 0.0 30.0 34.03893 21.92214
108 1 0.0 30.0 34.03893 25.96107
109 1 0.0 30.0 34.03893 30.0
110 1 0.0 30.0 34.03893 34.03893
111 1 0.0 30.0 34.03893 38.07786
112 1 0.0 30.0 34.03893 42.11679
113 1 0.0 30.0 38.07786 17.88321
114 1 0.0 30.0 38.07786 21.92214
115 1 0.0 30.0 38.07786 25.96107
116 1 0.0 30.0 38.07786 30.0
117 1 0.0 30.0 38.07786 34.03893
118 1 0.0 30.0 38.07786 38.07786
119 1 0.0 30.0 38.07786 42.11679
120 1 0.0 30.0 42.11679 21.92214
121 1 0.0 30.0 42.11679 25.96107
122 1 0.0 30.0 42.11679 30.0
123 1 0.0 30.0 42.11679 34.03893
124 1 0.0 30.0 42.11679 38.07786
125 1 0.0 34.03893 17.88321 25.96107
126 1 0.0 34.03893 17.88321 30.0
127 1 0.0 34.03893 17.88321 34.03893
128 1 0.0 34.03893 21.92214 21.92214
129 1 0.0 34.03893 21.92214 25.96107
130 1 0.0 34.03893 21.92214 30.0
131 1 0.0 34.03893 21.92214 34.03893
132 1 0.0 34.03893 21.92214 38.07786
133 1 0.0 34.03893 25.96107 17.88321
134 1 0.0 34.03893 25.96107 21.92214
135 1 0.0 34.03893 25.96107 25.96107
136 1 0.0 34.03893 25.96107 30.0
137 1 0.0 34.03893 25.96107 34.03893
138 1 0.0 34.03893 25.96107 38.07786
139 1 0.0 34.03893 25.96107 42.11679
140 1 0.0 34.03893 30.0 17.88321
141 1 0.0 34.03893 30.0 21.92214
142 1 0.0 34.03893 30.0 25.96107
143 1 0.0 34.03893 30.0 30.0
144 1 0.0 34.03893 30.0 34.03893
145 1 0.0 34.03893 30.0 38.07786
146 1 0.0 34.03893 30.0 42.11679
147 1 0.0 34.03893 34.03893 17.88321
148 1 0.0 34.03893 34.03893 21.92214
149 1 0.0 34.03893 34.03893 25.96107
150 1 0.0 34.03893 34.03893 30.0
151 1 0.0 34.03893 34.03893 34.03893
152 1 0.0 34.03893 34.03893 38.07786
153 1 0.0 34.03893 34.03893 42.11679
154 1 0.0 34.03893 38.07786 21.92214
155 1 0.0 34.03893 38.07786 25.96107
156 1 0.0 34.03893 38.07786 30.0
157 1 0.0 34.03893 38.07786 34.03893
158 1 0.0 34.03893 38.07786 38.07786
159 1 0.0 34.03893 42.11679 25.96107
160 1 0.0 34.03893 42.11679 30.0
161 1 0.0 34.03893 42.11679 34.03893
162 1 0.0 38.07786 17.88321 30.0
163 1 0.0 38.07786 21.92214 21.92214
164 1 0.0 38.07786 21.92214 25.96107
165 1 0.0 38.07786 21.92214 30.0
166 1 0.0 38.07786 21.92214 34.03893
167 1 0.0 38.07786 21.92214 38.07786
168 1 0.0 38.07786 25.96107 21.92214
169 1 0.0 38.07786 25.96107 25.96107
170 1 0.0 38.07786 25.96107 30.0
171 1 0.0 38.07786 25.96107 34.03893
172 1 0.0 38.07786 25.96107 38.07786
173 1 0.0 38.07786 30.0 17.88321
174 1 0.0 38.07786 30.0 21.92214
175 1 0.0 38.07786 30.0 25.96107
176 1 0.0 38.07786 30.0 30.0
177 1 0.0 38.07786 30.0 34.03893
178 1 0.0 38.07786 30.0 38.07786
179 1 0.0 38.07786 30.0 42.11679
180 1 0.0 38.07786 34.03893 21.92214
181 1 0.0 38.07786 34.03893 25.96107
182 1 0.0 38.07786 34.03893 30.0
183 1 0.0 38.07786 34.03893 34.03893
184 1 0.0 38.07786 34.03893 38.07786
185 1 0.0 38.07786 38.07786 21.92214
186 1 0.0 38.07786 38.07786 25.96107
187 1 0.0 38.07786 38.07786 30.0
188 1 0.0 38.07786 38.07786 34.03893
189 1 0.0 38.07786 38.07786 38.07786
190 1 0.0 38.07786 42.11679 30.0
191 1 0.0 42.11679 21.92214 30.0
192 1 0.0 42.11679 25.96107 25.96107
193 1 0.0 42.11679 25.96107 30.0
194 1 0.0 42.11679 25.96107 34.03893
195 1 0.0 42.11679 30.0 21.92214
196 1 0.0 42.11679 30.0 25.96107
197 1 0.0 42.11679 30.0 30.0
198 1 0.0 42.11679 30.0 34.03893
199 1 0.0 42.11679 30.0 38.07786
200 1 0.0 42.11679 34.03893 25.96107
201 1 0.0 42.11679 34.03893 30.0
202 1 0.0 42.11679 34.03893 34.03893
203 1 0.0 42.11679 38.07786 30.0
204 1 0.0 17.88321 23.9416 23.9416
205 1 0.0 17.88321 23.9416 27.98054
206 1 0.0 17.88321 23.9416 32.01946
207 1 0.0 17.88321 23.9416 36.0584
208 1 0.0 17.88321 27.98054 23.9416
209 1 0.0 17.88321 27.98054 27.98054
210 1 0.0 17.88321 27.98054 32.01946
211 1 0.0 17.88321 27.98054 36.0584
212 1 0.0 17.88321 32.01946 23.9416
213 1 0.0 17.88321 32.01946 27.98054
214 1 0.0 17.88321 32.01946 32.01946
215 1 0.0 17.88321 32.01946 36.0584
216 1 0.0 17.88321 36.0584 23.9416
217 1 0.0 17.88321 36.0584 27.98054
218 1 0.0 17.88321 36.0584 32.01946
219 1 0.0 17.88321 36.0584 36.0584
220 1 0.0 21.92214 19.90268 23.9416
221 1 0.0 21.92214 19.90268 27.98054
222 1 0.0 21.92214 19.90268 32.01946
223 1 0.0 21.92214 19.90268 36.0584
224 1 0.0 21.92214 23.9416 19.90268
225 1 0.0 21.92214 23.9416 23.9416
226 1 0.0 21.92214 23.9416 27.98054
227 1 0.0 21.92214 23.9416 32.01946
228 1 0.0 21.92214 23.9416 36.0584
229 1 0.0 21.92214 23.9416 40.09733
230 1 0.0 21.92214 27.98054 19.90268
231 1 0.0 21.92214 27.98054 23.9416
232 1 0.0 21.92214 27.98054 27.98054
233 1 0.0 21.92214 27.98054 32.01946
234 1 0.0 21.92214 27.98054 36.0584
235 1 0.0 21.92214 27.98054 40.09733
236 1 0.0 21.92214 32.01946 19.90268
237 1 0.0 21.92214 32.01946 23.9416
238 1 0.0 21.92214 32.01946 27.98054
239 1 0.0 21.92214 32.01946 32.01946
240 1 0.0 21.92214 32.01946 36.0584
241 1 0.0 21.92214 32.01946 40.09733
242 1 0.0 21.92214 36.0584 19.90268
243 1 0.0 21.92214 36.0584 23.9416
244 1 0.0 21.92214 36.0584 27.98054
245 1 0.0 21.92214 36.0584 32.01946
246 1 0.0 21.92214 36.0584 36.0584
247 1 0.0 21.92214 36.0584 40.09733
248 1 0.0 21.92214 40.09733 23.9416
249 1 0.0 21.92214 40.09733 27.98054
250 1 0.0 21.92214 40.09733 32.01946
251 1 0.0 21.92214 40.09733 36.0584
252 1 0.0 25.96107 15.86374 27.98054
253 1 0.0 25.96107 15.86374 32.01946
254 1 0.0 25.96107 19.90268 19.90268
255 1 0.0 25.96107 19.90268 23.9416
256 1 0.0 25.96107 19.90268 27.98054
257 1 0.0 25.96107 19.90268 32.01946
258 1 0.0 25.96107 19.90268 36.0584
259 1 0.0 25.96107 19.90268 40.09733
260 1 0.0 25.96107 23.9416 19.90268
261 1 0.0 25.96107 23.9416 23.9416
262 1 0.0 25.96107 23.9416 27.98054
263 1 0.0 25.96107 23.9416 32.01946
264 1 0.0 25.96107 23.9416 36.0584
265 1 0.0 25.96107 23.9416 40.09733
266 1 0.0 25.96107 27.98054 15.86374
267 1 0.0 25.96107 27.98054 19.90268
268 1 0.0 25.96107 27.98054 23.9416
269 1 0.0 25.96107 27.98054 27.98054
270 1 0.0 25.96107 27.98054 32.01946
271 1 0.0 25.96107 27.98054 36.0584
272 1 0.0 25.96107 27.98054 40.09733
273 1 0.0 25.96107 27.98054 44.13626
274 1 0.0 25.96107 32.01946 15.86374
275 1 0.0 25.96107 32.01946 19.90268
276 1 0.0 25.96107 32.01946 23.9416
277 1 0.0 25.96107 32.01946 27.98054
278 1 0.0 25.96107 32.01946 32.01946
279 1 0.0 25.96107 32.01946 36.0584
280 1 0.0 25.96107 32.01946 40.09733
281 1 0.0 25.96107 32.01946 44.13626
282 1 0.0 25.96107 36.0584 19.90268
283 1 0.0 25.96107 36.0584 23.9416
284 1 0.0 25.96107 36.0584 27.98054
285 1 0.0 25.96107 36.0584 32.01946
286 1 0.0 25.96107 36.0584 36.0584
287 1 0.0 25.96107 36.0584 40.09733
288 1 0.0 25.96107 40.09733 19.90268
289 1 0.0 25.96107 40.09733 23.9416
290 1 0.0 25.96107 40.09733 27.98054
291 1 0.0 25.96107 40.09733 32.01946
292 1 0.0 25.96107 40.09733 36.0584
293 1 0.0 25.96107 40.09733 40.09733
294 1 0.0 25.96107 44.13626 27.98054
295 1 0.0 25.96107 44.13626 32.01946
296 1 0.0 30.0 15.86374 27.98054
297 1 0.0 30.0 15.86374 32.01946
298 1 0.0 30.0 19.90268 19.90268
299 1 0.0 30.0 19.90268 23.9416
300 1 0.0 30.0 19.90268 27.98054
301 1 0.0 30.0 19.90268 32.01946
302 1 0.0 30.0 19.90268 36.0584
303 1 0.0 30.0 19.90268 40.09733
304 1 0.0 30.0 23.9416 19.90268
305 1 0.0 30.0 23.9416 23.9416
306 1 0.0 30.0 23.9416 27.98054
307 1 0.0 30.0 23.9416 32.01946
308 1 0.0 30.0 23.9416 36.0584
309 1 0.0 30.0 23.9416 40.09733
310 1 0.0 30.0 27.98054 15.86374
311 1 0.0 30.0 27.98054 19.90268
312 1 0.0 30.0 27.98054 23.9416
313 1 0.0 30.0 27.98054 27.98054
314 1 0.0 30.0 27.98054 32.01946
315 1 0.0 30.0 27.98054 36.0584
316 1 0.0 30.0 27.98054 40.09733
317 1 0.0 30.0 27.98054 44.13626
318 1 0.0 30.0 32.01946 15.86374
319 1 0.0 30.0 32.01946 19.90268
320 1 0.0 30.0 32.01946 23.9416
321 1 0.0 30.0 32.01946 27.98054
322 1 0.0 30.0 32.01946 32.01946
323 1 0.0 30.0 32.01946 36.0584
324 1 0.0 30.0 32.01946 40.09733
325 1 0.0 30.0 32.01946 44.13626
326 1 0.0 30.0 36.0584 19.90268
327 1 0.0 30.0 36.0584 23.9416
328 1 0.0 30.0 36.0584 27.98054
329 1 0.0 30.0 36.0584 32.01946
330 1 0.0 30.0 36.0584 36.0584
331 1 0.0 30.0 36.0584 40.09733
332 1 0.0 30.0 40.09733 19.90268
333 1 0.0 30.0 40.09733 23.9416
334 1 0.0 30.0 40.09733 27.98054
335 1 0.0 30.0 40.09733 32.01946
336 1 0.0 30.0 40.09733 36.0584
337 1 0.0 30.0 40.09733 40.09733
338 1 0.0 30.0 44.13626 27.98054
339 1 0.0 30.0 44.13626 32.01946
340 1 0.0 34.03893 15.86374 27.98054
341 1 0.0 34.03893 15.86374 32.01946
342 1 0.0 34.03893 19.90268 19.90268
343 1 0.0 34.03893 19.90268 23.9416
344 1 0.0 34.03893 19.90268 27.98054
345 1 0.0 34.03893 19.90268 32.01946
346 1 0.0 34.03893 19.90268 36.0584
347 1 0.0 34.03893 19.90268 40.09733
348 1 0.0 34.03893 23.9416 19.90268
349 1 0.0 34.03893 23.9416 23.9416
350 1 0.0 34.03893 23.9416 27.98054
351 1 0.0 34.03893 23.9416 32.01946
352 1 0.0 34.03893 23.9416 36.0584
353 1 0.0 34.03893 23.9416 40.09733
354 1 0.0 34.03893 27.98054 15.86374
355 1 0.0 34.03893 27.98054 19.90268
356 1 0.0 34.03893 27.98054 23.9416
357 1 0.0 34.03893 27.98054 27.98054
358 1 0.0 34.03893 27.98054 32.01946
359 1 0.0 34.03893 27.98054 36.0584
360 1 0.0 34.03893 27.98054 40.09733
361 1 0.0 34.03893 27.98054 44.13626
362 1 0.0 34.03893 32.01946 15.86374
363 1 0.0 34.03893 32.01946 19.90268
364 1 0.0 34.03893 32.01946 23.9416
365 1 0.0 34.03893 32.01946 27.98054
366 1 0.0 34.03893 32.01946 32.01946
367 1 0.0 34.03893 32.01946 36.0584
368 1 0.0 34.03893 32.01946 40.09733
369 1 0.0 34.03893 32.01946 44.13626
370 1 0.0 34.03893 36.0584 19.90268
371 1 0.0 34.03893 36.0584 23.9416
372 1 0.0 34.03893 36.0584 27.98054
373 1 0.0 34.03893 36.0584 32.01946
374 1 0.0 34.03893 36.0584 36.0584
375 1 0.0 34.03893 36.0584 40.09733
376 1 0.0 34.03893 40.09733 19.90268
377 1 0.0 34.03893 40.09733 23.9416
378 1 0.0 34.03893 40.09733 27.98054
379 1 0.0 34.03893 40.09733 32.01946
380 1 0.0 34.03893 40.09733 36.0584
381 1 0.0 34.03893 40.09733 40.09733
382 1 0.0 34.03893 44.13626 27.98054
383 1 0.0 34.03893 44.13626 32.01946
384 1 0.0 38.07786 19.90268 23.9416
385 1 0.0 38.07786 19.90268 27.98054
386 1 0.0 38.07786 19.90268 32.01946
387 1 0.0 38.07786 19.90268 36.0584
388 1 0.0 38.07786 23.9416 19.90268
389 1 0.0 38.07786 23.9416 23.9416
390 1 0.0 38.07786 23.9416 27.98054
391 1 0.0 38.07786 23.9416 32.01946
392 1 0.0 38.07786 23.9416 36.0584
393 1 0.0 38.07786 23.9416 40.09733
394 1 0.0 38.07786 27.98054 19.90268
395 1 0.0 38.07786 27.98054 23.9416
396 1 0.0 38.07786 27.98054 27.98054
397 1 0.0 38.07786 27.98054 32.01946
398 1 0.0 38.07786 27.98054 36.0584
399 1 0.0 38.07786 27.98054 40.09733
400 1 0.0 38.07786 32.01946 19.90268
401 1 0.0 38.07786 32.01946 23.9416
402 1 0.0 38.07786 32.01946 27.98054
403 1 0.0 38.07786 32.01946 32.01946
404 1 0.0 38.07786 32.01946 36.0584
405 1 0.0 38.07786 32.01946 40.09733
406 1 0.0 38.07786 36.0584 19.90268
407 1 0.0 38.07786 36.0584 23.9416
408 1 0.0 38.07786 36.0584 27.98054
409 1 0.0 38.07786 36.0584 32.01946
410 1 0.0 38.07786 36.0584 36.0584
411 1 0.0 38.07786 36.0584 40.09733
412 1 0.0 38.07786 40.09733 23.9416
413 1 0.0 38.07786 40.09733 27.98054
414 1 0.0 38.07786 40.09733 32.01946
415 1 0.0 38.07786 40.09733 36.0584
416 1 0.0 42.11679 23.9416 23.9416
417 1 0.0 42.11679 23.9416 27.98054
418 1 0.0 42.11679 23.9416 32.01946
419 1 0.0 42.11679 23.9416 36.0584
420 1 0.0 42.11679 27.98054 23.9416
421 1 0.0 42.11679 27.98054 27.98054
422 1 0.0 42.11679 27.98054 32.01946
423 1 0.0 42.11679 27.98054 36.0584
424 1 0.0 42.11679 32.01946 23.9416
425 1 0.0 42.11679 32.01946 27.98054
426 1 0.0 42.11679 32.01946 32.01946
427 1 0.0 42.11679 32.01946 36.0584
428 1 0.0 42.11679 36.0584 23.9416
429 1 0.0 42.11679 36.0584 27.98054
430 1 0.0 42.11679 36.0584 32.01946
431 1 0.0 42.11679 36.0584 36.0584
432 1 0.0 15.86374 25.96107 27.98054
433 1 0.0 15.86374 25.96107 32.01946
434 1 0.0 15.86374 30.0 27.98054
435 1 0.0 15.86374 30.0 32.01946
436 1 0.0 15.86374 34.03893 27.98054
437 1 0.0 15.86374 34.03893 32.01946
438 1 0.0 19.90268 21.92214 23.9416
439 1 0.0 19.90268 21.92214 27.98054
440 1 0.0 19.90268 21.92214 32.01946
441 1 0.0 19.90268 21.92214 36.0584
442 1 0.0 19.90268 25.96107 19.90268
443 1 0.0 19.90268 25.96107 23.9416
444 1 0.0 19.90268 25.96107 27.98054
445 1 0.0 19.90268 25.96107 32.01946
446 1 0.0 19.90268 25.96107 36.0584
447 1 0.0 19.90268 25.96107 40.09733
448 1 0.0 19.90268 30.0 19.90268
449 1 0.0 19.90268 30.0 23.9416
450 1 0.0 19.90268 30.0 27.98054
451 1 0.0 19.90268 30.0 32.01946
452 1 0.0 19.90268 30.0 36.0584
453 1 0.0 19.90268 30.0 40.09733
454 1 0.0 19.90268 34.03893 19.90268
455 1 0.0 19.90268 34.03893 23.9416
456 1 0.0 19.90268 34.03893 27.98054
457 1 0.0 19.90268 34.03893 32.01946
458 1 0.0 19.90268 34.03893 36.0584
459 1 0.0 19.90268 34.03893 40.09733
460 1 0.0 19.90268 38.07786 23.9416
461 1 0.0 19.90268 38.07786 27.98054
462 1 0.0 19.90268 38.07786 32.01946
463 1 0.0 19.90268 38.07786 36.0584
464 1 0.0 23.9416 17.88321 23.9416
465 1 0.0 23.9416 17.88321 27.98054
466 1 0.0 23.9416 17.88321 32.01946
467 1 0.0 23.9416 17.88321 36.0584
468 1 0.0 23.9416 21.92214 19.90268
469 1 0.0 23.9416 21.92214 23.9416
470 1 0.0 23.9416 21.92214 27.98054
471 1 0.0 23.9416 21.92214 32.01946
472 1 0.0 23.9416 21.92214 36.0584
473 1 0.0 23.9416 21.92214 40.09733
474 1 0.0 23.9416 25.96107 19.90268
475 1 0.0 23.9416 25.96107 23.9416
476 1 0.0 23.9416 25.96107 27.98054
477 1 0.0 23.9416 25.96107 32.01946
478 1 0.0 23.9416 25.96107 36.0584
479 1 0.0 23.9416 25.96107 40.09733
480 1 0.0 23.9416 30.0 19.90268
481 1 0.0 23.9416 30.0 23.9416
482 1 0.0 23.9416 30.0 27.98054
483 1 0.0 23.9416 30.0 32.01946
484 1 0.0 23.9416 30.0 36.0584
485 1 0.0 23.9416 30.0 40.09733
486 1 0.0 23.9416 34.03893 19.90268
487 1 0.0 23.9416 34.03893 23.9416
488 1 0.0 23.9416 34.03893 27.98054
489 1 0.0 23.9416 34.03893 32.01946
490 1 0.0 23.9416 34.03893 36.0584
491 1 0.0 23.9416 34.03893 40.09733
492 1 0.0 23.9416 38.07786 19.90268
493 1 0.0 23.9416 38.07786 23.9416
494 1 0.0 23.9416 38.07786 27.98054
495 1 0.0 23.9416 38.07786 32.01946
496 1 0.0 23.9416 38.07786 36.0584
497 1 0.0 23.9416 38.07786 40.09733
498 1 0.0 23.9416 42.11679 23.9416
499 1 0.0 23.9416 42.11679 27.98054
500 1 0.0 23.9416 42.11679 32.01946
501 1 0.0 23.9416 42.11679 36.0584
502 1 0.0 27.98054 17.88321 23.9416
503 1 0.0 27.98054 17.88321 27.98054
504 1 0.0 27.98054 17.88321 32.01946
505 1 0.0 27.98054 17.88321 36.0584
506 1 0.0 27.98054 21.92214 19.90268
507 1 0.0 27.98054 21.92214 23.9416
508 1 0.0 27.98054 21.92214 27.98054
509 1 0.0 27.98054 21.92214 32.01946
510 1 0.0 27.98054 21.92214 36.0584
511 1 0.0 27.98054 21.92214 40.09733
512 1 0.0 27.98054 25.96107 15.86374
513 1 0.0 27.98054 25.96107 19.90268
514 1 0.0 27.98054 25.96107 23.9416
515 1 0.0 27.98054 25.96107 27.98054
516 1 0.0 27.98054 25.96107 32.01946
517 1 0.0 27.98054 25.96107 36.0584
518 1 0.0 27.98054 25.96107 40.09733
519 1 0.0 27.98054 25.96107 44.13626
520 1 0.0 27.98054 30.0 15.86374
521 1 0.0 27.98054 30.0 19.90268
522 1 0.0 27.98054 30.0 23.9416
523 1 0.0 27.98054 30.0 27.98054
524 1 0.0 27.98054 30.0 32.01946
525 1 0.0 27.98054 30.0 36.0584
526 1 0.0 27.98054 30.0 40.09733
527 1 0.0 27.98054 30.0 44.13626
528 1 0.0 27.98054 34.03893 15.86374
529 1 0.0 27.98054 34.03893 19.90268
530 1 0.0 27.98054 34.03893 23.9416
531 1 0.0 27.98054 34.03893 27.98054
532 1 0.0 27.98054 34.03893 32.01946
533 1 0.0 27.98054 34.03893 36.0584
534 1 0.0 27.98054 34.03893 40.09733
535 1 0.0 27.98054 34.03893 44.13626
536 1 0.0 27.98054 38.07786 19.90268
537 1 0.0 27.98054 38.07786 23.9416
538 1 0.0 27.98054 38.07786 27.98054
539 1 0.0 27.98054 38.07786 32.01946
540 1 0.0 27.98054 38.07786 36.0584
541 1 0.0 27.98054 38.07786 40.09733
542 1 0.0 27.98054 42.11679 23.9416
543 1 0.0 27.98054 42.11679 27.98054
544 1 0.0 27.98054 42.11679 32.01946
545 1 0.0 27.98054 42.11679 36.0584
546 1 0.0 32.01946 17.88321 23.9416
547 1 0.0 32.01946 17.88321 27.98054
548 1 0.0 32.01946 17.88321 32.01946
549 1 0.0 32.01946 17.88321 36.0584
550 1 0.0 32.01946 21.92214 19.90268
551 1 0.0 32.01946 21.92214 23.9416
552 1 0.0 32.01946 21.92214 27.98054
553 1 0.0 32.01946 21.92214 32.01946
554 1 0.0 32.01946 21.92214 36.0584
555 1 0.0 32.01946 21.92214 40.09733
556 1 0.0 32.01946 25.96107 15.86374
557 1 0.0 32.01946 25.96107 19.90268
558 1 0.0 32.01946 25.96107 23.9416
559 1 0.0 32.01946 25.96107 27.98054
560 1 0.0 32.01946 25.96107 32.01946
561 1 0.0 32.01946 25.96107 36.0584
562 1 0.0 32.01946 25.96107 40.09733
563 1 0.0 32.01946 25.96107 44.13626
564 1 0.0 32.01946 30.0 15.86374
565 1 0.0 32.01946 30.0 19.90268
566 1 0.0 32.01946 30.0 23.9416
567 1 0.0 32.01946 30.0 27.98054
568 1 0.0 32.01946 30.0 32.01946
569 1 0.0 32.01946 30.0 36.0584
570 1 0.0 32.01946 30.0 40.09733
571 1 0.0 32.01946 30.0 44.13626
572 1 0.0 32.01946 34.03893 15.86374
573 1 0.0 32.01946 34.03893 19.90268
574 1 0.0 32.01946 34.03893 23.9416
575 1 0.0 32.01946 34.03893 27.98054
576 1 0.0 32.01946 34.03893 32.01946
577 1 0.0 32.01946 34.03893 36.0584
578 1 0.0 32.01946 34.03893 40.09733
579 1 0.0 32.01946 34.03893 44.13626
580 1 0.0 32.01946 38.07786 19.90268
581 1 0.0 32.01946 38.07786 23.9416
582 1 0.0 32.01946 38.07786 27.98054
583 1 0.0 32.01946 38.07786 32.01946
584 1 0.0 32.01946 38.07786 36.0584
585 1 0.0 32.01946 38.07786 40.09733
586 1 0.0 32.01946 42.11679 23.9416
587 1 0.0 32.01946 42.11679 27.98054
588 1 0.0 32.01946 42.11679 32.01946
589 1 0.0 32.01946 42.11679 36.0584
590 1 0.0 36.0584 17.88321 23.9416
591 1 0.0 36.0584 17.88321 27.98054
592 1 0.0 36.0584 17.88321 32.01946
593 1 0.0 36.0584 17.88321 36.0584
594 1 0.0 36.0584 21.92214 19.90268
595 1 0.0 36.0584 21.92214 23.9416
596 1 0.0 36.0584 21.92214 27.98054
597 1 0.0 36.0584 21.92214 32.01946
598 1 0.0 36.0584 21.92214 36.0584
599 1 0.0 36.0584 21.92214 40.09733
600 1 0.0 36.0584 25.96107 19.90268
601 1 0.0 36.0584 25.96107 23.9416
602 1 0.0 36.0584 25.96107 27.98054
603 1 0.0 36.0584 25.96107 32.01946
604 1 0.0 36.0584 25.96107 36.0584
605 1 0.0 36.0584 25.96107 40.09733
606 1 0.0 36.0584 30.0 19.90268
607 1 0.0 36.0584 30.0 23.9416
608 1 0.0 36.0584 30.0 27.98054
609 1 0.0 36.0584 30.0 32.01946
610 1 0.0 36.0584 30.0 36.0584
611 1 0.0 36.0584 30.0 40.09733
612 1 0.0 36.0584 34.03893 19.90268
613 1 0.0 36.0584 34.03893 23.9416
614 1 0.0 36.0584 34.03893 27.98054
615 1 0.0 36.0584 34.03893 32.01946
616 1 0.0 36.0584 34.03893 36.0584
617 1 0.0 36.0584 34.03893 40.09733
618 1 0.0 36.0584 38.07786 19.90268
619 1 0.0 36.0584 38.07786 23.9416
620 1 0.0 36.0584 38.07786 27.98054
621 1 0.0 36.0584 38.07786 32.01946
622 1 0.0 36.0584 38.07786 36.0584
623 1 0.0 36.0584 38.07786 40.09733
624 1 0.0 36.0584 42.11679 23.9416
625 1 0.0 36.0584 42.11679 27.98054
626 1 0.0 36.0584 42.11679 32.01946
627 1 0.0 36.0584 42.11679 36.0584
628 1 0.0 40.09733 21.92214 23.9416
629 1 0.0 40.09733 21.92214 27.98054
630 1 0.0 40.09733 21.92214 32.01946
631 1 0.0 40.09733 21.92214 36.0584
632 1 0.0 40.09733 25.96107 19.90268
633 1 0.0 40.09733 25.96107 23.9416
634 1 0.0 40.09733 25.96107 27.98054
635 1 0.0 40.09733 25.96107 32.01946
636 1 0.0 40.09733 25.96107 36.0584
637 1 0.0 40.09733 25.96107 40.09733
638 1 0.0 40.09733 30.0 19.90268
639 1 0.0 40.09733 30.0 23.9416
640 1 0.0 40.09733 30.0 27.98054
641 1 0.0 40.09733 30.0 32.01946
642 1 0.0 40.09733 30.0 36.0584
643 1 0.0 40.09733 30.0 40.09733
644 1 0.0 40.09733 34.03893 19.90268
645 1 0.0 40.09733 34.03893 23.9416
646 1 0.0 40.09733 34.03893 27.98054
647 1 0.0 40.09733 34.03893 32.01946
648 1 0.0 40.09733 34.03893 36.0584
649 1 0.0 40.09733 34.03893 40.09733
650 1 0.0 40.09733 38.07786 23.9416
651 1 0.0 40.09733 38.07786 27.98054
652 1 0.0 40.09733 38.07786 32.01946
653 1 0.0 40.09733 38.07786 36.0584
654 1 0.0 44.13626 25.96107 27.98054
655 1 0.0 44.13626 25.96107 32.01946
656 1 0.0 44.13626 30.0 27.98054
657 1 0.0 44.13626 30.0 32.01946
658 1 0.0 44.13626 34.03893 27.98054
659 1 0.0 44.13626 34.03893 32.01946
660 1 0.0 15.86374 27.98054 25.96107
661 1 0.0 15.86374 27.98054 30.0
662 1 0.0 15.86374 27.98054 34.03893
663 1 0.0 15.86374 32.01946 25.96107
664 1 0.0 15.86374 32.01946 30.0
665 1 0.0 15.86374 32.01946 34.03893
666 1 0.0 19.90268 19.90268 25.96107
667 1 0.0 19.90268 19.90268 30.0
668 1 0.0 19.90268 19.90268 34.03893
669 1 0.0 19.90268 23.9416 21.92214
670 1 0.0 19.90268 23.9416 25.96107
671 1 0.0 19.90268 23.9416 30.0
672 1 0.0 19.90268 23.9416 34.03893
673 1 0.0 19.90268 23.9416 38.07786
674 1 0.0 19.90268 27.98054 21.92214
675 1 0.0 19.90268 27.98054 25.96107
676 1 0.0 19.90268 27.98054 30.0
677 1 0.0 19.90268 27.98054 34.03893
678 1 0.0 19.90268 27.98054 38.07786
679 1 0.0 19.90268 32.01946 21.92214
680 1 0.0 19.90268 32.01946 25.96107
681 1 0.0 19.90268 32.01946 30.0
682 1 0.0 19.90268 32.01946 34.03893
683 1 0.0 19.90268 32.01946 38.07786
684 1 0.0 19.90268 36.0584 21.92214
685 1 0.0 19.90268 36.0584 25.96107
686 1 0.0 19.90268 36.0584 30.0
687 1 0.0 19.90268 36.0584 34.03893
688 1 0.0 19.90268 36.0584 38.07786
689 1 0.0 19.90268 40.09733 25.96107
690 1 0.0 19.90268 40.09733 30.0
691 1 0.0 19.90268 40.09733 34.03893
692 1 0.0 23.9416 19.90268 21.92214
693 1 0.0 23.9416 19.90268 25.96107
694 1 0.0 23.9416 19.90268 30.0
695 1 0.0 23.9416 19.90268 34.03893
696 1 0.0 23.9416 19.90268 38.07786
697 1 0.0 23.9416 23.9416 17.88321
698 1 0.0 23.9416 23.9416 21.92214
699 1 0.0 23.9416 23.9416 25.96107
700 1 0.0 23.9416 23.9416 30.0
701 1 0.0 23.9416 23.9416 34.03893
702 1 0.0 23.9416 23.9416 38.07786
703 1 0.0 23.9416 23.9416 42.11679
704 1 0.0 23.9416 27.98054 17.88321
705 1 0.0 23.9416 27.98054 21.92214
706 1 0.0 23.9416 27.98054 25.96107
707 1 0.0 23.9416 27.98054 30.0
708 1 0.0 23.9416 27.98054 34.03893
709 1 0.0 23.9416 27.98054 38.07786
710 1 0.0 23.9416 27.98054 42.11679
711 1 0.0 23.9416 32.01946 17.88321
712 1 0.0 23.9416 32.01946 21.92214
713 1 0.0 23.9416 32.01946 25.96107
714 1 0.0 23.9416 32.01946 30.0
715 1 0.0 23.9416 32.01946 34.03893
716 1 0.0 23.9416 32.01946 38.07786
717 1 0.0 23.9416 32.01946 42.11679
718 1 0.0 23.9416 36.0584 17.88321
719 1 0.0 23.9416 36.0584 21.92214
720 1 0.0 23.9416 36.0584 25.96107
721 1 0.0 23.9416 36.0584 30.0
722 1 0.0 23.9416 36.0584 34.03893
723 1 0.0 23.9416 36.0584 38.07786
724 1 0.0 23.9416 36.0584 42.11679
725 1 0.0 23.9416 40.09733 21.92214
726 1 0.0 23.9416 40.09733 25.96107
727 1 0.0 23.9416 40.09733 30.0
728 1 0.0 23.9416 40.09733 34.03893
729 1 0.0 23.9416 40.09733 38.07786
730 1 0.0 27.98054 15.86374 25.96107
731 1 0.0 27.98054 15.86374 30.0
732 1 0.0 27.98054 15.86374 34.03893
733 1 0.0 27.98054 19.90268 21.92214
734 1 0.0 27.98054 19.90268 25.96107
735 1 0.0 27.98054 19.90268 30.0
736 1 0.0 27.98054 19.90268 34.03893
737 1 0.0 27.98054 19.90268 38.07786
738 1 0.0 27.98054 23.9416 17.88321
739 1 0.0 27.98054 23.9416 21.92214
740 1 0.0 27.98054 23.9416 25.96107
741 1 0.0 27.98054 23.9416 30.0
742 1 0.0 27.98054 23.9416 34.03893
743 1 0.0 27.98054 23.9416 38.07786
744 1 0.0 27.98054 23.9416 42.11679
745 1 0.0 27.98054 27.98054 17.88321
746 1 0.0 27.98054 27.98054 21.92214
747 1 0.0 27.98054 27.98054 25.96107
748 1 0.0 27.98054 27.98054 30.0
749 1 0.0 27.98054 27.98054 34.03893
750 1 0.0 27.98054 27.98054 38.07786
751 1 0.0 27.98054 27.98054 42.11679
752 1 0.0 27.98054 32.01946 17.88321
753 1 0.0 27.98054 32.01946 21.92214
754 1 0.0 27.98054 32.01946 25.96107
755 1 0.0 27.98054 32.01946 30.0
756 1 0.0 27.98054 32.01946 34.03893
757 1 0.0 27.98054 32.01946 38.07786
758 1 0.0 27.98054 32.01946 42.11679
759 1 0.0 27.98054 36.0584 17.88321
760 1 0.0 27.98054 36.0584 21.92214
761 1 0.0 27.98054 36.0584 25.96107
762 1 0.0 27.98054 36.0584 30.0
763 1 0.0 27.98054 36.0584 34.03893
764 1 0.0 27.98054 36.0584 38.07786
765 1 0.0 27.98054 36.0584 42.11679
766 1 0.0 27.98054 40.09733 21.92214
767 1 0.0 27.98054 40.09733 25.96107
768 1 0.0 27.98054 40.09733 30.0
769 1 0.0 27.98054 40.09733 34.03893
770 1 0.0 27.98054 40.09733 38.07786
771 1 0.0 27.98054 44.13626 25.96107
772 1 0.0 27.98054 44.13626 30.0
773 1 0.0 27.98054 44.13626 34.03893
774 1 0.0 32.01946 15.86374 25.96107
775 1 0.0 32.01946 15.86374 30.0
776 1 0.0 32.01946 15.86374 34.03893
777 1 0.0 32.01946 19.90268 21.92214
778 1 0.0 32.01946 19.90268 25.96107
779 1 0.0 32.01946 19.90268 30.0
780 1 0.0 32.01946 19.90268 34.03893
781 1 0.0 32.01946 19.90268 38.07786
782 1 0.0 32.01946 23.9416 17.88321
783 1 0.0 32.01946 23.9416 21.92214
784 1 0.0 32.01946 23.9416 25.96107
785 1 0.0 32.01946 23.9416 30.0
786 1 0.0 32.01946 23.9416 34.03893
787 1 0.0 32.01946 23.9416 38.07786
788 1 0.0 32.01946 23.9416 42.11679
789 1 0.0 32.01946 27.98054 17.88321
790 1 0.0 32.01946 27.98054 21.92214
791 1 0.0 32.01946 27.98054 25.96107
792 1 0.0 32.01946 27.98054 30.0
793 1 0.0 32.01946 27.98054 34.03893
794 1 0.0 32.01946 27.98054 38.07786
795 1 0.0 32.01946 27.98054 42.11679
796 1 0.0 32.01946 32.01946 17.88321
797 1 0.0 32.01946 32.01946 21.92214
798 1 0.0 32.01946 32.01946 25.96107
799 1 0.0 32.01946 32.01946 30.0
800 1 0.0 32.01946 32.01946 34.03893
801 1 0.0 32.01946 32.01946 38.07786
802 1 0.0 32.01946 32.01946 42.11679
803 1 0.0 32.01946 36.0584 17.88321
804 1 0.0 32.01946 36.0584 21.92214
805 1 0.0 32.01946 36.0584 25.96107
806 1 0.0 32.01946 36.0584 30.0
807 1 0.0 32.01946 36.0584 34.03893
808 1 0.0 32.01946 36.0584 38.07786
809 1 0.0 32.01946 36.0584 42.11679
810 1 0.0 32.01946 40.09733 21.92214
811 1 0.0 32.01946 40.09733 25.96107
812 1 0.0 32.01946 40.09733 30.0
813 1 0.0 32.01946 40.09733 34.03893
814 1 0.0 32.01946 40.09733 38.07786
815 1 0.0 32.01946 44.13626 25.96107
816 1 0.0 32.01946 44.13626 30.0
817 1 0.0 32.01946 44.13626 34.03893
818 1 0.0 36.0584 19.90268 21.92214
819 1 0.0 36.0584 19.90268 25.96107
820 1 0.0 36.0584 19.90268 30.0
821 1 0.0 36.0584 19.90268 34.03893
822 1 0.0 36.0584 19.90268 38.07786
823 1 0.0 36.0584 23.9416 17.88321
824 1 0.0 36.0584 23.9416 21.92214
825 1 0.0 36.0584 23.9416 25.96107