# LAMMPS data file written by Ovito Basic 3.0.0-dev791
3077 atoms
3 atom types
0.0 45.0 xlo xhi
0.0 45.0 ylo yhi
0.0 45.0 zlo zhi

Atoms  # charge

1 1 0.0 10.38321 14.42214 22.5
2 1 0.0 10.38321 18.46107 18.46107
3 1 0.0 10.38321 18.46107 22.5
4 1 0.0 10.38321 18.46107 26.53893
5 1 0.0 10.38321 22.5 14.42214
6 1 0.0 10.38321 22.5 18.46107
7 1 0.0 10.38321 22.5 22.5
8 1 0.0 10.38321 22.5 26.53893
9 1 0.0 10.38321 22.5 30.57786
10 1 0.0 10.38321 26.53893 18.46107
11 1 0.0 10.38321 26.53893 22.5
12 1 0.0 10.38321 26.53893 26.53893
13 1 0.0 10.38321 30.57786 22.5
14 1 0.0 14.42214 10.38321 22.5
15 1 0.0 14.42214 14.42214 14.42214
16 1 0.0 14.42214 14.42214 18.46107
17 1 0.0 14.42214 14.42214 22.5
18 1 0.0 14.42214 14.42214 26.53893
19 1 0.0 14.42214 14.42214 30.57786
20 1 0.0 14.42214 18.46107 14.42214
21 1 0.0 14.42214 18.46107 18.46107
22 1 0.0 14.42214 18.46107 22.5
23 1 0.0 14.42214 18.46107 26.53893
24 1 0.0 14.42214 18.46107 30.57786
25 1 0.0 14.42214 22.5 10.38321
26 1 0.0 14.42214 22.5 14.42214
27 1 0.0 14.42214 22.5 18.46107
28 1 0.0 14.42214 22.5 22.5
29 1 0.0 14.42214 22.5 26.53893
30 1 0.0 14.42214 22.5 30.57786
31 1 0.0 14.42214 22.5 34.61679
32 1 0.0 14.42214 26.53893 14.42214
33 1 0.0 14.42214 26.53893 18.46107
34 1 0.0 14.42214 26.53893 22.5
35 1 0.0 14.42214 26.53893 26.53893
36 1 0.0 14.42214 26.53893 30.57786
37 1 0.0 14.42214 30.57786 14.42214
38 1 0.0 14.42214 30.57786 18.46107
39 1 0.0 14.42214 30.57786 22.5
40 1 0.0 14.42214 30.57786 26.53893
41 1 0.0 14.42214 30.57786 30.57786
42 1 0.0 14.42214 34.61679 22.5
43 1 0.0 18.46107 10.38321 18.46107
44 1 0.0 18.46107 10.38321 22.5
45 1 0.0 18.46107 10.38321 26.53893
46 1 0.0 18.46107 14.42214 14.42214
47 1 0.0 18.46107 14.42214 18.46107
48 1 0.0 18.46107 14.42214 22.5
49 1 0.0 18.46107 14.42214 26.53893
50 1 0.0 18.46107 14.42214 30.57786
51 1 0.0 18.46107 18.46107 10.38321
52 1 0.0 18.46107 18.46107 14.42214
53 1 0.0 18.46107 18.46107 18.46107
54 1 0.0 18.46107 18.46107 22.5
55 1 0.0 18.46107 18.46107 26.53893
56 1 0.0 18.46107 18.46107 30.57786
57 1 0.0 18.46107 18.46107 34.61679
58 1 0.0 18.46107 22.5 10.38321
59 1 0.0 18.46107 22.5 14.42214
60 1 0.0 18.46107 22.5 18.46107
61 1 0.0 18.46107 22.5 22.5
62 1 0.0 18.46107 22.5 26.53893
63 1 0.0 18.46107 22.5 30.57786
64 1 0.0 18.46107 22.5 34.61679
65 1 0.0 18.46107 26.53893 10.38321
66 1 0.0 18.46107 26.53893 14.42214
67 1 0.0 18.46107 26.53893 18.46107
68 1 0.0 18.46107 26.53893 22.5
69 1 0.0 18.46107 26.53893 26.53893
70 1 0.0 18.46107 26.53893 30.57786
71 1 0.0 18.46107 26.53893 34.61679
72 1 0.0 18.46107 30.57786 14.42214
73 1 0.0 18.46107 30.57786 18.46107
74 1 0.0 18.46107 30.57786 22.5
75 1 0.0 18.46107 30.57786 26.53893
76 1 0.0 18.46107 30.57786 30.57786
77 1 0.0 18.46107 34.61679 18.46107
78 1 0.0 18.46107 34.61679 22.5
79 1 0.0 18.46107 34.61679 26.53893
80 1 0.0 22.5 10.38321 14.42214
81 1 0.0 22.5 10.38321 18.46107
82 1 0.0 22.5 10.38321 22.5
83 1 0.0 22.5 10.38321 26.53893
84 1 0.0 22.5 10.38321 30.57786
85 1 0.0 22.5 14.42214 10.38321
86 1 0.0 22.5 14.42214 14.42214
87 1 0.0 22.5 14.42214 18.46107
88 1 0.0 22.5 14.42214 22.5
89 1 0.0 22.5 14.42214 26.53893
90 1 0.0 22.5 14.42214 30.57786
91 1 0.0 22.5 14.42214 34.61679
92 1 0.0 22.5 18.46107 10.38321
93 1 0.0 22.5 18.46107 14.42214
94 1 0.0 22.5 18.46107 18.46107
95 1 0.0 22.5 18.46107 22.5
96 1 0.0 22.5 18.46107 26.53893
97 1 0.0 22.5 18.46107 30.57786
98 1 0.0 22.5 18.46107 34.61679
99 1 0.0 22.5 22.5 10.38321
100 1 0.0 22.5 22.5 14.42214
101 1 0.0 22.5 22.5 18.46107
102 1 0.0 22.5 22.5 22.5
103 1 0.0 22.5 22.5 26.53893
104 1 0.0 22.5 22.5 30.57786
105 1 0.0 22.5 22.5 34.61679
106 1 0.0 22.5 26.53893 10.38321
107 1 0.0 22.5 26.53893 14.42214
108 1 0.0 22.5 26.53893 18.46107
109 1 0.0 22.5 26.53893 22.5
110 1 0.0 22.5 26.53893 26.53893
111 1 0.0 22.5 26.53893 30.57786
112 1 0.0 22.5 26.53893 34.61679
113 1 0.0 22.5 30.57786 10.38321
114 1 0.0 22.5 30.57786 14.42214
115 1 0.0 22.5 30.57786 18.46107
116 1 0.0 22.5 30.57786 22.5
117 1 0.0 22.5 30.57786 26.53893
118 1 0.0 22.5 30.57786 30.57786
119 1 0.0 22.5 30.57786 34.61679
120 1 0.0 22.5 34.61679 14.42214
121 1 0.0 22.5 34.61679 18.46107
122 1 0.0 22.5 34.61679 22.5
123 1 0.0 22.5 34.61679 26.53893
124 1 0.0 22.5 34.61679 30.57786
125 1 0.0 26.53893 10.38321 18.46107
126 1 0.0 26.53893 10.38321 22.5
127 1 0.0 26.53893 10.38321 26.53893
128 1 0.0 26.53893 14.42214 14.42214
129 1 0.0 26.53893 14.42214 18.46107
130 1 0.0 26.53893 14.42214 22.5
131 1 0.0 26.53893 14.42214 26.53893
132 1 0.0 26.53893 14.42214 30.57786
133 1 0.0 26.53893 18.46107 10.38321
134 1 0.0 26.53893 18.46107 14.42214
135 1 0.0 26.53893 18.46107 18.46107
136 1 0.0 26.53893 18.46107 22.5
137 1 0.0 26.53893 18.46107 26.53893
138 1 0.0 26.53893 18.46107 30.57786
139 1 0.0 26.53893 18.46107 34.61679
140 1 0.0 26.53893 22.5 10.38321
141 1 0.0 26.53893 22.5 14.42214
142 1 0.0 26.53893 22.5 18.46107
143 1 0.0 26.53893 22.5 22.5
144 1 0.0 26.53893 22.5 26.53893
145 1 0.0 26.53893 22.5 30.57786
146 1 0.0 26.53893 22.5 34.61679
147 1 0.0 26.53893 26.53893 10.38321
148 1 0.0 26.53893 26.53893 14.42214
149 1 0.0 26.53893 26.53893 18.46107
150 1 0.0 26.53893 26.53893 22.5
151 1 0.0 26.53893 26.53893 26.53893
152 1 0.0 26.53893 26.53893 30.57786
153 1 0.0 26.53893 26.53893 34.61679
154 1 0.0 26.53893 30.57786 14.42214
155 1 0.0 26.53893 30.57786 18.46107
156 1 0.0 26.53893 30.57786 22.5
157 1 0.0 26.53893 30.57786 26.53893
158 1 0.0 26.53893 30.57786 30.57786
159 1 0.0 26.53893 34.61679 18.46107
160 1 0.0 26.53893 34.61679 22.5
161 1 0.0 26.53893 34.61679 26.53893
162 1 0.0 30.57786 10.38321 22.5
163 1 0.0 30.57786 14.42214 14.42214
164 1 0.0 30.57786 14.42214 18.46107
165 1 0.0 30.57786 14.42214 22.5
166 1 0.0 30.57786 14.42214 26.53893
167 1 0.0 30.57786 14.42214 30.57786
168 1 0.0 30.57786 18.46107 14.42214
169 1 0.0 30.57786 18.46107 18.46107
170 1 0.0 30.57786 18.46107 22.5
171 1 0.0 30.57786 18.46107 26.53893
172 1 0.0 30.57786 18.46107 30.57786
173 1 0.0 30.57786 22.5 10.38321
174 1 0.0 30.57786 22.5 14.42214
175 1 0.0 30.57786 22.5 18.46107
176 1 0.0 30.57786 22.5 22.5
177 1 0.0 30.57786 22.5 26.53893
178 1 0.0 30.57786 22.5 30.57786
179 1 0.0 30.57786 22.5 34.61679
180 1 0.0 30.57786 26.53893 14.42214
181 1 0.0 30.57786 26.53893 18.46107
182 1 0.0 30.57786 26.53893 22.5
183 1 0.0 30.57786 26.53893 26.53893
184 1 0.0 30.57786 26.53893 30.57786
185 1 0.0 30.57786 30.57786 14.42214
186 1 0.0 30.57786 30.57786 18.46107
187 1 0.0 30.57786 30.57786 22.5
188 1 0.0 30.57786 30.57786 26.53893
189 1 0.0 30.57786 30.57786 30.57786
190 1 0.0 30.57786 34.61679 22.5
191 1 0.0 34.61679 14.42214 22.5
192 1 0.0 34.61679 18.46107 18.46107
193 1 0.0 34.61679 18.46107 22.5
194 1 0.0 34.61679 18.46107 26.53893
195 1 0.0 34.61679 22.5 14.42214
196 1 0.0 34.61679 22.5 18.46107
197 1 0.0 34.61679 22.5 22.5
198 1 0.0 34.61679 22.5 26.53893
199 1 0.0 34.61679 22.5 30.57786
200 1 0.0 34.61679 26.53893 18.46107
201 1 0.0 34.61679 26.53893 22.5
202 1 0.0 34.61679 26.53893 26.53893
203 1 0.0 34.61679 30.57786 22.5
204 1 0.0 10.38321 16.4416 16.4416
205 1 0.0 10.38321 16.4416 20.48054
206 1 0.0 10.38321 16.4416 24.51946
207 1 0.0 10.38321 16.4416 28.5584
208 1 0.0 10.38321 20.48054 16.4416
209 1 0.0 10.38321 20.48054 20.48054
210 1 0.0 10.38321 20.48054 24.51946
211 1 0.0 10.38321 20.48054 28.5584
212 1 0.0 10.38321 24.51946 16.4416
213 1 0.0 10.38321 24.51946 20.48054
214 1 0.0 10.38321 24.51946 24.51946
215 1 0.0 10.38321 24.51946 28.5584
216 1 0.0 10.38321 28.5584 16.4416
217 1 0.0 10.38321 28.5584 20.48054
218 1 0.0 10.38321 28.5584 24.51946
219 1 0.0 10.38321 28.5584 28.5584
220 1 0.0 14.42214 12.40268 16.4416
221 1 0.0 14.42214 12.40268 20.48054
222 1 0.0 14.42214 12.40268 24.51946
223 1 0.0 14.42214 12.40268 28.5584
224 1 0.0 14.42214 16.4416 12.40268
225 1 0.0 14.42214 16.4416 16.4416
226 1 0.0 14.42214 16.4416 20.48054
227 1 0.0 14.42214 16.4416 24.51946
228 1 0.0 14.42214 16.4416 28.5584
229 1 0.0 14.42214 16.4416 32.59733
230 1 0.0 14.42214 20.48054 12.40268
231 1 0.0 14.42214 20.48054 16.4416
232 1 0.0 14.42214 20.48054 20.48054
233 1 0.0 14.42214 20.48054 24.51946
234 1 0.0 14.42214 20.48054 28.5584
235 1 0.0 14.42214 20.48054 32.59733
236 1 0.0 14.42214 24.51946 12.40268
237 1 0.0 14.42214 24.51946 16.4416
238 1 0.0 14.42214 24.51946 20.48054
239 1 0.0 14.42214 24.51946 24.51946
240 1 0.0 14.42214 24.51946 28.5584
241 1 0.0 14.42214 24.51946 32.59733
242 1 0.0 14.42214 28.5584 12.40268
243 1 0.0 14.42214 28.5584 16.4416
244 1 0.0 14.42214 28.5584 20.48054
245 1 0.0 14.42214 28.5584 24.51946
246 1 0.0 14.42214 28.5584 28.5584
247 1 0.0 14.42214 28.5584 32.59733
248 1 0.0 14.42214 32.59733 16.4416
249 1 0.0 14.42214 32.59733 20.48054
250 1 0.0 14.42214 32.59733 24.51946
251 1 0.0 14.42214 32.59733 28.5584
252 1 0.0 18.46107 8.36374 20.48054
253 1 0.0 18.46107 8.36374 24.51946
254 1 0.0 18.46107 12.40268 12.40268
255 1 0.0 18.46107 12.40268 16.4416
256 1 0.0 18.46107 12.40268 20.48054
257 1 0.0 18.46107 12.40268 24.51946
258 1 0.0 18.46107 12.40268 28.5584
259 1 0.0 18.46107 12.40268 32.59733
260 1 0.0 18.46107 16.4416 12.40268
261 1 0.0 18.46107 16.4416 16.4416
262 1 0.0 18.46107 16.4416 20.48054
263 1 0.0 18.46107 16.4416 24.51946
264 1 0.0 18.46107 16.4416 28.5584
265 1 0.0 18.46107 16.4416 32.59733
266 1 0.0 18.46107 20.48054 8.36374
267 1 0.0 18.46107 20.48054 12.40268
268 1 0.0 18.46107 20.48054 16.4416
269 1 0.0 18.46107 20.48054 20.48054
270 1 0.0 18.46107 20.48054 24.51946
271 1 0.0 18.46107 20.48054 28.5584
272 1 0.0 18.46107 20.48054 32.59733
273 1 0.0 18.46107 20.48054 36.63626
274 1 0.0 18.46107 24.51946 8.36374
275 1 0.0 18.46107 24.51946 12.40268
276 1 0.0 18.46107 24.51946 16.4416
277 1 0.0 18.46107 24.51946 20.48054
278 1 0.0 18.46107 24.51946 24.51946
279 1 0.0 18.46107 24.51946 28.5584
280 1 0.0 18.46107 24.51946 32.59733
281 1 0.0 18.46107 24.51946 36.63626
282 1 0.0 18.46107 28.5584 12.40268
283 1 0.0 18.46107 28.5584 16.4416
284 1 0.0 18.46107 28.5584 20.48054
285 1 0.0 18.46107 28.5584 24.51946
286 1 0.0 18.46107 28.5584 28.5584
287 1 0.0 18.46107 28.5584 32.59733
288 1 0.0 18.46107 32.59733 12.40268
289 1 0.0 18.46107 32.59733 16.4416
290 1 0.0 18.46107 32.59733 20.48054
291 1 0.0 18.46107 32.59733 24.51946
292 1 0.0 18.46107 32.59733 28.5584
293 1 0.0 18.46107 32.59733 32.59733
294 1 0.0 18.46107 36.63626 20.48054
295 1 0.0 18.46107 36.63626 24.51946
296 1 0.0 22.5 8.36374 20.48054
297 1 0.0 22.5 8.36374 24.51946
298 1 0.0 22.5 12.40268 12.40268
299 1 0.0 22.5 12.40268 16.4416
300 1 0.0 22.5 12.40268 20.48054
301 1 0.0 22.5 12.40268 24.51946
302 1 0.0 22.5 12.40268 28.5584
303 1 0.0 22.5 12.40268 32.59733
304 1 0.0 22.5 16.4416 12.40268
305 1 0.0 22.5 16.4416 16.4416
306 1 0.0 22.5 16.4416 20.48054
307 1 0.0 22.5 16.4416 24.51946
308 1 0.0 22.5 16.4416 28.5584
309 1 0.0 22.5 16.4416 32.59733
310 1 0.0 22.5 20.48054 8.36374
311 1 0.0 22.5 20.48054 12.40268
312 1 0.0 22.5 20.48054 16.4416
313 1 0.0 22.5 20.48054 20.48054
314 1 0.0 22.5 20.48054 24.51946
315 1 0.0 22.5 20.48054 28.5584
316 1 0.0 22.5 20.48054 32.59733
317 1 0.0 22.5 20.48054 36.63626
318 1 0.0 22.5 24.51946 8.36374
319 1 0.0 22.5 24.51946 12.40268
320 1 0.0 22.5 24.51946 16.4416
321 1 0.0 22.5 24.51946 20.48054
322 1 0.0 22.5 24.51946 24.51946
323 1 0.0 22.5 24.51946 28.5584
324 1 0.0 22.5 24.51946 32.59733
325 1 0.0 22.5 24.51946 36.63626
326 1 0.0 22.5 28.5584 12.40268
327 1 0.0 22.5 28.5584 16.4416
328 1 0.0 22.5 28.5584 20.48054
329 1 0.0 22.5 28.5584 24.51946
330 1 0.0 22.5 28.5584 28.5584
331 1 0.0 22.5 28.5584 32.59733
332 1 0.0 22.5 32.59733 12.40268
333 1 0.0 22.5 32.59733 16.4416
334 1 0.0 22.5 32.59733 20.48054
335 1 0.0 22.5 32.59733 24.51946
336 1 0.0 22.5 32.59733 28.5584
337 1 0.0 22.5 32.59733 32.59733
338 1 0.0 22.5 36.63626 20.48054
339 1 0.0 22.5 36.63626 24.51946
340 1 0.0 26.53893 8.36374 20.48054
341 1 0.0 26.53893 8.36374 24.51946
342 1 0.0 26.53893 12.40268 12.40268
343 1 0.0 26.53893 12.40268 16.4416
344 1 0.0 26.53893 12.40268 20.48054
345 1 0.0 26.53893 12.40268 24.51946
346 1 0.0 26.53893 12.40268 28.5584
347 1 0.0 26.53893 12.40268 32.59733
348 1 0.0 26.53893 16.4416 12.40268
349 1 0.0 26.53893 16.4416 16.4416
350 1 0.0 26.53893 16.4416 20.48054
351 1 0.0 26.53893 16.4416 24.51946
352 1 0.0 26.53893 16.4416 28.5584
353 1 0.0 26.53893 16.4416 32.59733
354 1 0.0 26.53893 20.48054 8.36374
355 1 0.0 26.53893 20.48054 12.40268
356 1 0.0 26.53893 20.48054 16.4416
357 1 0.0 26.53893 20.48054 20.48054
358 1 0.0 26.53893 20.48054 24.51946
359 1 0.0 26.53893 20.48054 28.5584
360 1 0.0 26.53893 20.48054 32.59733
361 1 0.0 26.53893 20.48054 36.63626
362 1 0.0 26.53893 24.51946 8.36374
363 1 0.0 26.53893 24.51946 12.40268
364 1 0.0 26.53893 24.51946 16.4416
365 1 0.0 26.53893 24.51946 20.48054
366 1 0.0 26.53893 24.51946 24.51946
367 1 0.0 26.53893 24.51946 28.5584
368 1 0.0 26.53893 24.51946 32.59733
369 1 0.0 26.53893 24.51946 36.63626
370 1 0.0 26.53893 28.5584 12.40268
371 1 0.0 26.53893 28.5584 16.4416
372 1 0.0 26.53893 28.5584 20.48054
373 1 0.0 26.53893 28.5584 24.51946
374 1 0.0 26.53893 28.5584 28.5584
375 1 0.0 26.53893 28.5584 32.59733
376 1 0.0 26.53893 32.59733 12.40268
377 1 0.0 26.53893 32.59733 16.4416
378 1 0.0 26.53893 32.59733 20.48054
379 1 0.0 26.53893 32.59733 24.51946
380 1 0.0 26.53893 32.59733 28.5584
381 1 0.0 26.53893 32.59733 32.59733
382 1 0.0 26.53893 36.63626 20.48054
383 1 0.0 26.53893 36.63626 24.51946
384 1 0.0 30.57786 12.40268 16.4416
385 1 0.0 30.57786 12.40268 20.48054
386 1 0.0 30.57786 12.40268 24.51946
387 1 0.0 30.57786 12.40268 28.5584
388 1 0.0 30.57786 16.4416 12.40268
389 1 0.0 30.57786 16.4416 16.4416
390 1 0.0 30.57786 16.4416 20.48054
391 1 0.0 30.57786 16.4416 24.51946
392 1 0.0 30.57786 16.4416 28.5584
393 1 0.0 30.57786 16.4416 32.59733
394 1 0.0 30.57786 20.48054 12.40268
395 1 0.0 30.57786 20.48054 16.4416
396 1 0.0 30.57786 20.48054 20.48054
397 1 0.0 30.57786 20.48054 24.51946
398 1 0.0 30.57786 20.48054 28.5584
399 1 0.0 30.57786 20.48054 32.59733
400 1 0.0 30.57786 24.51946 12.40268
401 1 0.0 30.57786 24.51946 16.4416
402 1 0.0 30.57786 24.51946 20.48054
403 1 0.0 30.57786 24.51946 24.51946
404 1 0.0 30.57786 24.51946 28.5584
405 1 0.0 30.57786 24.51946 32.59733
406 1 0.0 30.57786 28.5584 12.40268
407 1 0.0 30.57786 28.5584 16.4416
408 1 0.0 30.57786 28.5584 20.48054
409 1 0.0 30.57786 28.5584 24.51946
410 1 0.0 30.57786 28.5584 28.5584
411 1 0.0 30.57786 28.5584 32.59733
412 1 0.0 30.57786 32.59733 16.4416
413 1 0.0 30.57786 32.59733 20.48054
414 1 0.0 30.57786 32.59733 24.51946
415 1 0.0 30.57786 32.59733 28.5584
416 1 0.0 34.61679 16.4416 16.4416
417 1 0.0 34.61679 16.4416 20.48054
418 1 0.0 34.61679 16.4416 24.51946
419 1 0.0 34.61679 16.4416 28.5584
420 1 0.0 34.61679 20.48054 16.4416
421 1 0.0 34.61679 20.48054 20.48054
422 1 0.0 34.61679 20.48054 24.51946
423 1 0.0 34.61679 20.48054 28.5584
424 1 0.0 34.61679 24.51946 16.4416
425 1 0.0 34.61679 24.51946 20.48054
426 1 0.0 34.61679 24.51946 24.51946
427 1 0.0 34.61679 24.51946 28.5584
428 1 0.0 34.61679 28.5584 16.4416
429 1 0.0 34.61679 28.5584 20.48054
430 1 0.0 34.61679 28.5584 24.51946
431 1 0.0 34.61679 28.5584 28.5584
432 1 0.0 8.36374 18.46107 20.48054
433 1 0.0 8.36374 18.46107 24.51946
434 1 0.0 8.36374 22.5 20.48054
435 1 0.0 8.36374 22.5 24.51946
436 1 0.0 8.36374 26.53893 20.48054
437 1 0.0 8.36374 26.53893 24.51946
438 1 0.0 12.40268 14.42214 16.4416
439 1 0.0 12.40268 14.42214 20.48054
440 1 0.0 12.40268 14.42214 24.51946
441 1 0.0 12.40268 14.42214 28.5584
442 1 0.0 12.40268 18.46107 12.40268
443 1 0.0 12.40268 18.46107 16.4416
444 1 0.0 12.40268 18.46107 20.48054
445 1 0.0 12.40268 18.46107 24.51946
446 1 0.0 12.40268 18.46107 28.5584
447 1 0.0 12.40268 18.46107 32.59733
448 1 0.0 12.40268 22.5 12.40268
449 1 0.0 12.40268 22.5 16.4416
450 1 0.0 12.40268 22.5 20.48054
451 1 0.0 12.40268 22.5 24.51946
452 1 0.0 12.40268 22.5 28.5584
453 1 0.0 12.40268 22.5 32.59733
454 1 0.0 12.40268 26.53893 12.40268
455 1 0.0 12.40268 26.53893 16.4416
456 1 0.0 12.40268 26.53893 20.48054
457 1 0.0 12.40268 26.53893 24.51946
458 1 0.0 12.40268 26.53893 28.5584
459 1 0.0 12.40268 26.53893 32.59733
460 1 0.0 12.40268 30.57786 16.4416
461 1 0.0 12.40268 30.57786 20.48054
462 1 0.0 12.40268 30.57786 24.51946
463 1 0.0 12.40268 30.57786 28.5584
464 1 0.0 16.4416 10.38321 16.4416
465 1 0.0 16.4416 10.38321 20.48054
466 1 0.0 16.4416 10.38321 24.51946
467 1 0.0 16.4416 10.38321 28.5584
468 1 0.0 16.4416 14.42214 12.40268
469 1 0.0 16.4416 14.42214 16.4416
470 1 0.0 16.4416 14.42214 20.48054
471 1 0.0 16.4416 14.42214 24.51946
472 1 0.0 16.4416 14.42214 28.5584
473 1 0.0 16.4416 14.42214 32.59733
474 1 0.0 16.4416 18.46107 12.40268
475 1 0.0 16.4416 18.46107 16.4416
476 1 0.0 16.4416 18.46107 20.48054
477 1 0.0 16.4416 18.46107 24.51946
478 1 0.0 16.4416 18.46107 28.5584
479 1 0.0 16.4416 18.46107 32.59733
480 1 0.0 16.4416 22.5 12.40268
481 1 0.0 16.4416 22.5 16.4416
482 1 0.0 16.4416 22.5 20.48054
483 1 0.0 16.4416 22.5 24.51946
484 1 0.0 16.4416 22.5 28.5584
485 1 0.0 16.4416 22.5 32.59733
486 1 0.0 16.4416 26.53893 12.40268
487 1 0.0 16.4416 26.53893 16.4416
488 1 0.0 16.4416 26.53893 20.48054
489 1 0.0 16.4416 26.53893 24.51946
490 1 0.0 16.4416 26.53893 28.5584
491 1 0.0 16.4416 26.53893 32.59733
492 1 0.0 16.4416 30.57786 12.40268
493 1 0.0 16.4416 30.57786 16.4416
494 1 0.0 16.4416 30.57786 20.48054
495 1 0.0 16.4416 30.57786 24.51946
496 1 0.0 16.4416 30.57786 28.5584
497 1 0.0 16.4416 30.57786 32.59733
498 1 0.0 16.4416 34.61679 16.4416
499 1 0.0 16.4416 34.61679 20.48054
500 1 0.0 16.4416 34.61679 24.51946
501 1 0.0 16.4416 34.61679 28.5584
502 1 0.0 20.48054 10.38321 16.4416
503 1 0.0 20.48054 10.38321 20.48054
504 1 0.0 20.48054 10.38321 24.51946
505 1 0.0 20.48054 10.38321 28.5584
506 1 0.0 20.48054 14.42214 12.40268
507 1 0.0 20.48054 14.42214 16.4416
508 1 0.0 20.48054 14.42214 20.48054
509 1 0.0 20.48054 14.42214 24.51946
510 1 0.0 20.48054 14.42214 28.5584
511 1 0.0 20.48054 14.42214 32.59733
512 1 0.0 20.48054 18.46107 8.36374
513 1 0.0 20.48054 18.46107 12.40268
514 1 0.0 20.48054 18.46107 16.4416
515 1 0.0 20.48054 18.46107 20.48054
516 1 0.0 20.48054 18.46107 24.51946
517 1 0.0 20.48054 18.46107 28.5584
518 1 0.0 20.48054 18.46107 32.59733
519 1 0.0 20.48054 18.46107 36.63626
520 1 0.0 20.48054 22.5 8.36374
521 1 0.0 20.48054 22.5 12.40268
522 1 0.0 20.48054 22.5 16.4416
523 1 0.0 20.48054 22.5 20.48054
524 1 0.0 20.48054 22.5 24.51946
525 1 0.0 20.48054 22.5 28.5584
526 1 0.0 20.48054 22.5 32.59733
527 1 0.0 20.48054 22.5 36.63626
528 1 0.0 20.48054 26.53893 8.36374
529 1 0.0 20.48054 26.53893 12.40268
530 1 0.0 20.48054 26.53893 16.4416
531 1 0.0 20.48054 26.53893 20.48054
532 1 0.0 20.48054 26.53893 24.51946
533 1 0.0 20.48054 26.53893 28.5584
534 1 0.0 20.48054 26.53893 32.59733
535 1 0.0 20.48054 26.53893 36.63626
536 1 0.0 20.48054 30.57786 12.40268
537 1 0.0 20.48054 30.57786 16.4416
538 1 0.0 20.48054 30.57786 20.48054
539 1 0.0 20.48054 30.57786 24.51946
540 1 0.0 20.48054 30.57786 28.5584
541 1 0.0 20.48054 30.57786 32.59733
542 1 0.0 20.48054 34.61679 16.4416
543 1 0.0 20.48054 34.61679 20.48054
544 1 0.0 20.48054 34.61679 24.51946
545 1 0.0 20.48054 34.61679 28.5584
546 1 0.0 24.51946 10.38321 16.4416
547 1 0.0 24.51946 10.38321 20.48054
548 1 0.0 24.51946 10.38321 24.51946
549 1 0.0 24.51946 10.38321 28.5584
550 1 0.0 24.51946 14.42214 12.40268
551 1 0.0 24.51946 14.42214 16.4416
552 1 0.0 24.51946 14.42214 20.48054
553 1 0.0 24.51946 14.42214 24.51946
554 1 0.0 24.51946 14.42214 28.5584
555 1 0.0 24.51946 14.42214 32.59733
556 1 0.0 24.51946 18.46107 8.36374
557 1 0.0 24.51946 18.46107 12.40268
558 1 0.0 24.51946 18.46107 16.4416
559 1 0.0 24.51946 18.46107 20.48054
560 1 0.0 24.51946 18.46107 24.51946
561 1 0.0 24.51946 18.46107 28.5584
562 1 0.0 24.51946 18.46107 32.59733
563 1 0.0 24.51946 18.46107 36.63626
564 1 0.0 24.51946 22.5 8.36374
565 1 0.0 24.51946 22.5 12.40268
566 1 0.0 24.51946 22.5 16.4416
567 1 0.0 24.51946 22.5 20.48054
568 1 0.0 24.51946 22.5 24.51946
569 1 0.0 24.51946 22.5 28.5584
570 1 0.0 24.51946 22.5 32.59733
571 1 0.0 24.51946 22.5 36.63626
572 1 0.0 24.51946 26.53893 8.36374
573 1 0.0 24.51946 26.53893 12.40268
574 1 0.0 24.51946 26.53893 16.4416
575 1 0.0 24.51946 26.53893 20.48054
576 1 0.0 24.51946 26.53893 24.51946
577 1 0.0 24.51946 26.53893 28.5584
578 1 0.0 24.51946 26.53893 32.59733
579 1 0.0 24.51946 26.53893 36.63626
580 1 0.0 24.51946 30.57786 12.40268
581 1 0.0 24.51946 30.57786 16.4416
582 1 0.0 24.51946 30.57786 20.48054
583 1 0.0 24.51946 30.57786 24.51946
584 1 0.0 24.51946 30.57786 28.5584
585 1 0.0 24.51946 30.57786 32.59733
586 1 0.0 24.51946 34.61679 16.4416
587 1 0.0 24.51946 34.61679 20.48054
588 1 0.0 24.51946 34.61679 24.51946
589 1 0.0 24.51946 34.61679 28.5584
590 1 0.0 28.5584 10.38321 16.4416
591 1 0.0 28.5584 10.38321 20.48054
592 1 0.0 28.5584 10.38321 24.51946
593 1 0.0 28.5584 10.38321 28.5584
594 1 0.0 28.5584 14.42214 12.40268
595 1 0.0 28.5584 14.42214 16.4416
596 1 0.0 28.5584 14.42214 20.48054
597 1 0.0 28.5584 14.42214 24.51946
598 1 0.0 28.5584 14.42214 28.5584
599 1 0.0 28.5584 14.42214 32.59733
600 1 0.0 28.5584 18.46107 12.40268
601 1 0.0 28.5584 18.46107 16.4416
602 1 0.0 28.5584 18.46107 20.48054
603 1 0.0 28.5584 18.46107 24.51946
604 1 0.0 28.5584 18.46107 28.5584
605 1 0.0 28.5584 18.46107 32.59733
606 1 0.0 28.5584 22.5 12.40268
607 1 0.0 28.5584 22.5 16.4416
608 1 0.0 28.5584 22.5 20.48054
609 1 0.0 28.5584 22.5 24.51946
610 1 0.0 28.5584 22.5 28.5584
611 1 0.0 28.5584 22.5 32.59733
612 1 0.0 28.5584 26.53893 12.40268
613 1 0.0 28.5584 26.53893 16.4416
614 1 0.0 28.5584 26.53893 20.48054
615 1 0.0 28.5584 26.53893 24.51946
616 1 0.0 28.5584 26.53893 28.5584
617 1 0.0 28.5584 26.53893 32.59733
618 1 0.0 28.5584 30.57786 12.40268
619 1 0.0 28.5584 30.57786 16.4416
620 1 0.0 28.5584 30.57786 20.48054
621 1 0.0 28.5584 30.57786 24.51946
622 1 0.0 28.5584 30.57786 28.5584
623 1 0.0 28.5584 30.57786 32.59733
624 1 0.0 28.5584 34.61679 16.4416
625 1 0.0 28.5584 34.61679 20.48054
626 1 0.0 28.5584 34.61679 24.51946
627 1 0.0 28.5584 34.61679 28.5584
628 1 0.0 32.59733 14.42214 16.4416
629 1 0.0 32.59733 14.42214 20.48054
630 1 0.0 32.59733 14.42214 24.51946
631 1 0.0 32.59733 14.42214 28.5584
632 1 0.0 32.59733 18.46107 12.40268
633 1 0.0 32.59733 18.46107 16.4416
634 1 0.0 32.59733 18.46107 20.48054
635 1 0.0 32.59733 18.46107 24.51946
636 1 0.0 32.59733 18.46107 28.5584
637 1 0.0 32.59733 18.46107 32.59733
638 1 0.0 32.59733 22.5 12.40268
639 1 0.0 32.59733 22.5 16.4416
640 1 0.0 32.59733 22.5 20.48054
641 1 0.0 32.59733 22.5 24.51946
642 1 0.0 32.59733 22.5 28.5584
643 1 0.0 32.59733 22.5 32.59733
644 1 0.0 32.59733 26.53893 12.40268
645 1 0.0 32.59733 26.53893 16.4416
646 1 0.0 32.59733 26.53893 20.48054
647 1 0.0 32.59733 26.53893 24.51946
648 1 0.0 32.59733 26.53893 28.5584
649 1 0.0 32.59733 26.53893 32.59733
650 1 0.0 32.59733 30.57786 16.4416
651 1 0.0 32.59733 30.57786 20.48054
652 1 0.0 32.59733 30.57786 24.51946
653 1 0.0 32.59733 30.57786 28.5584
654 1 0.0 36.63626 18.46107 20.48054
655 1 0.0 36.63626 18.46107 24.51946
656 1 0.0 36.63626 22.5 20.48054
657 1 0.0 36.63626 22.5 24.51946
658 1 0.0 36.63626 26.53893 20.48054
659 1 0.0 36.63626 26.53893 24.51946
660 1 0.0 8.36374 20.48054 18.46107
661 1 0.0 8.36374 20.48054 22.5
662 1 0.0 8.36374 20.48054 26.53893
663 1 0.0 8.36374 24.51946 18.46107
664 1 0.0 8.36374 24.51946 22.5
665 1 0.0 8.36374 24.51946 26.53893
666 1 0.0 12.40268 12.40268 18.46107
667 1 0.0 12.40268 12.40268 22.5
668 1 0.0 12.40268 12.40268 26.53893
669 1 0.0 12.40268 16.4416 14.42214
670 1 0.0 12.40268 16.4416 18.46107
671 1 0.0 12.40268 16.4416 22.5
672 1 0.0 12.40268 16.4416 26.53893
673 1 0.0 12.40268 16.4416 30.57786
674 1 0.0 12.40268 20.48054 14.42214
675 1 0.0 12.40268 20.48054 18.46107
676 1 0.0 12.40268 20.48054 22.5
677 1 0.0 12.40268 20.48054 26.53893
678 1 0.0 12.40268 20.48054 30.57786
679 1 0.0 12.40268 24.51946 14.42214
680 1 0.0 12.40268 24.51946 18.46107
681 1 0.0 12.40268 24.51946 22.5
682 1 0.0 12.40268 24.51946 26.53893
683 1 0.0 12.40268 24.51946 30.57786
684 1 0.0 12.40268 28.5584 14.42214
685 1 0.0 12.40268 28.5584 18.46107
686 1 0.0 12.40268 28.5584 22.5
687 1 0.0 12.40268 28.5584 26.53893
688 1 0.0 12.40268 28.5584 30.57786
689 1 0.0 12.40268 32.59733 18.46107
690 1 0.0 12.40268 32.59733 22.5
691 1 0.0 12.40268 32.59733 26.53893
692 1 0.0 16.4416 12.40268 14.42214
693 1 0.0 16.4416 12.40268 18.46107
694 1 0.0 16.4416 12.40268 22.5
695 1 0.0 16.4416 12.40268 26.53893
696 1 0.0 16.4416 12.40268 30.57786
697 1 0.0 16.4416 16.4416 10.38321
698 1 0.0 16.4416 16.4416 14.42214
699 1 0.0 16.4416 16.4416 18.46107
700 1 0.0 16.4416 16.4416 22.5
701 1 0.0 16.4416 16.4416 26.53893
702 1 0.0 16.4416 16.4416 30.57786
703 1 0.0 16.4416 16.4416 34.61679
704 1 0.0 16.4416 20.48054 10.38321
705 1 0.0 16.4416 20.48054 14.42214
706 1 0.0 16.4416 20.48054 18.46107
707 1 0.0 16.4416 20.48054 22.5
708 1 0.0 16.4416 20.48054 26.53893
709 1 0.0 16.4416 20.48054 30.57786
710 1 0.0 16.4416 20.48054 34.61679
711 1 0.0 16.4416 24.51946 10.38321
712 1 0.0 16.4416 24.51946 14.42214
713 1 0.0 16.4416 24.51946 18.46107
714 1 0.0 16.4416 24.51946 22.5
715 1 0.0 16.4416 24.51946 26.53893
716 1 0.0 16.4416 24.51946 30.57786
717 1 0.0 16.4416 24.51946 34.61679
718 1 0.0 16.4416 28.5584 10.38321
719 1 0.0 16.4416 28.5584 14.42214
720 1 0.0 16.4416 28.5584 18.46107
721 1 0.0 16.4416 28.5584 22.5
722 1 0.0 16.4416 28.5584 26.53893
723 1 0.0 16.4416 28.5584 30.57786
724 1 0.0 16.4416 28.5584 34.61679
725 1 0.0 16.4416 32.59733 14.42214
726 1 0.0 16.4416 32.59733 18.46107
727 1 0.0 16.4416 32.59733 22.5
728 1 0.0 16.4416 32.59733 26.53893
729 1 0.0 16.4416 32.59733 30.57786
730 1 0.0 20.48054 8.36374 18.46107
731 1 0.0 20.48054 8.36374 22.5
732 1 0.0 20.48054 8.36374 26.53893
733 1 0.0 20.48054 12.40268 14.42214
734 1 0.0 20.48054 12.40268 18.46107
735 1 0.0 20.48054 12.40268 22.5
736 1 0.0 20.48054 12.40268 26.53893
737 1 0.0 20.48054 12.40268 30.57786
738 1 0.0 20.48054 16.4416 10.38321
739 1 0.0 20.48054 16.4416 14.42214
740 1 0.0 20.48054 16.4416 18.46107
741 1 0.0 20.48054 16.4416 22.5
742 1 0.0 20.48054 16.4416 26.53893
743 1 0.0 20.48054 16.4416 30.57786
744 1 0.0 20.48054 16.4416 34.61679
745 1 0.0 20.48054 20.48054 10.38321
746 1 0.0 20.48054 20.48054 14.42214
747 1 0.0 20.48054 20.48054 18.46107
748 1 0.0 20.48054 20.48054 22.5
749 1 0.0 20.48054 20.48054 26.53893
750 1 0.0 20.48054 20.48054 30.57786
751 1 0.0 20.48054 20.48054 34.61679
752 1 0.0 20.48054 24.51946 10.38321
753 1 0.0 20.48054 24.51946 14.42214
754 1 0.0 20.48054 24.51946 18.46107
755 1 0.0 20.48054 24.51946 22.5
756 1 0.0 20.48054 24.51946 26.53893
757 1 0.0 20.48054 24.51946 30.57786
758 1 0.0 20.48054 24.51946 34.61679
759 1 0.0 20.48054 28.5584 10.38321
760 1 0.0 20.48054 28.5584 14.42214
761 1 0.0 20.48054 28.5584 18.46107
762 1 0.0 20.48054 28.5584 22.5
763 1 0.0 20.48054 28.5584 26.53893
764 1 0.0 20.48054 28.5584 30.57786
765 1 0.0 20.48054 28.5584 34.61679
766 1 0.0 20.48054 32.59733 14.42214
767 1 0.0 20.48054 32.59733 18.46107
768 1 0.0 20.48054 32.59733 22.5
769 1 0.0 20.48054 32.59733 26.53893
770 1 0.0 20.48054 32.59733 30.57786
771 1 0.0 20.48054 36.63626 18.46107
772 1 0.0 20.48054 36.63626 22.5
773 1 0.0 20.48054 36.63626 26.53893
774 1 0.0 24.51946 8.36374 18.46107
775 1 0.0 24.51946 8.36374 22.5
776 1 0.0 24.51946 8.36374 26.53893
777 1 0.0 24.51946 12.40268 14.42214
778 1 0.0 24.51946 12.40268 18.46107
779 1 0.0 24.51946 12.40268 22.5
780 1 0.0 24.51946 12.40268 26.53893
781 1 0.0 24.51946 12.40268 30.57786
782 1 0.0 24.51946 16.4416 10.38321
783 1 0.0 24.51946 16.4416 14.42214
784 1 0.0 24.51946 16.4416 18.46107
785 1 0.0 24.51946 16.4416 22.5
786 1 0.0 24.51946 16.4416 26.53893
787 1 0.0 24.51946 16.4416 30.57786
788 1 0.0 24.51946 16.4416 34.61679
789 1 0.0 24.51946 20.48054 10.38321
790 1 0.0 24.51946 20.48054 14.42214
791 1 0.0 24.51946 20.48054 18.46107
792 1 0.0 24.51946 20.48054 22.5
793 1 0.0 24.51946 20.48054 26.53893
794 1 0.0 24.51946 20.48054 30.57786
795 1 0.0 24.51946 20.48054 34.61679
796 1 0.0 24.51946 24.51946 10.38321
797 1 0.0 24.51946 24.51946 14.42214
798 1 0.0 24.51946 24.51946 18.46107
799 1 0.0 24.51946 24.51946 22.5
800 1 0.0 24.51946 24.51946 26.53893
801 1 0.0 24.51946 24.51946 30.57786
802 1 0.0 24.51946 24.51946 34.61679
803 1 0.0 24.51946 28.5584 10.38321
804 1 0.0 24.51946 28.5584 14.42214
805 1 0.0 24.51946 28.5584 18.46107
806 1 0.0 24.51946 28.5584 22.5
807 1 0.0 24.51946 28.5584 26.53893
808 1 0.0 24.51946 28.5584 30.57786
809 1 0.0 24.51946 28.5584 34.61679
810 1 0.0 24.51946 32.59733 14.42214
811 1 0.0 24.51946 32.59733 18.46107
812 1 0.0 24.51946 32.59733 22.5
813 1 0.0 24.51946 32.59733 26.53893
814 1 0.0 24.51946 32.59733 30.57786
815 1 0.0 24.51946 36.63626 18.46107
816 1 0.0 24.51946 36.63626 22.5
817 1 0.0 24.51946 36.63626 26.53893
818 1 0.0 28.5584 12.40268 14.42214
819 1 0.0 28.5584 12.40268 18.46107
820 1 0.0 28.5584 12.40268 22.5
821 1 0.0 28.5584 12.40268 26.53893
822 1 0.0 28.5584 12.40268 30.57786
823 1 0.0 28.5584 16.4416 10.38321
824 1 0.0 28.5584 16.4416 14.42214
825 1 0.0 28.5584 16.4416 18.46107
826 1 0.0 28.5584 16.4416 22.5