# LAMMPS data file written by Ovito Basic 3.0.0-dev791
3776 atoms
3 atom types
0.0 45.0 xlo xhi
0.0 45.0 ylo yhi
0.0 45.0 zlo zhi

Atoms  # charge

1 1 0.0 9.72142 17.79928 17.79928
2 1 0.0 9.72142 17.79928 21.83821
3 1 0.0 9.72142 17.79928 25.87714
4 1 0.0 9.72142 21.83821 17.79928
5 1 0.0 9.72142 21.83821 21.83821
6 1 0.0 9.72142 21.83821 25.87714
7 1 0.0 9.72142 21.83821 29.91607
8 1 0.0 9.72142 25.87714 17.79928
9 1 0.0 9.72142 25.87714 21.83821
10 1 0.0 9.72142 25.87714 25.87714
11 1 0.0 9.72142 29.91607 21.83821
12 1 0.0 13.76035 13.76035 17.79928
13 1 0.0 13.76035 13.76035 21.83821
14 1 0.0 13.76035 13.76035 25.87714
15 1 0.0 13.76035 13.76035 29.91607
16 1 0.0 13.76035 17.79928 13.76035
17 1 0.0 13.76035 17.79928 17.79928
18 1 0.0 13.76035 17.79928 21.83821
19 1 0.0 13.76035 17.79928 25.87714
20 1 0.0 13.76035 17.79928 29.91607
21 1 0.0 13.76035 21.83821 13.76035
22 1 0.0 13.76035 21.83821 17.79928
23 1 0.0 13.76035 21.83821 21.83821
24 1 0.0 13.76035 21.83821 25.87714
25 1 0.0 13.76035 21.83821 29.91607
26 1 0.0 13.76035 21.83821 33.955
27 1 0.0 13.76035 25.87714 13.76035
28 1 0.0 13.76035 25.87714 17.79928
29 1 0.0 13.76035 25.87714 21.83821
30 1 0.0 13.76035 25.87714 25.87714
31 1 0.0 13.76035 25.87714 29.91607
32 1 0.0 13.76035 25.87714 33.955
33 1 0.0 13.76035 29.91607 13.76035
34 1 0.0 13.76035 29.91607 17.79928
35 1 0.0 13.76035 29.91607 21.83821
36 1 0.0 13.76035 29.91607 25.87714
37 1 0.0 13.76035 29.91607 29.91607
38 1 0.0 13.76035 33.955 21.83821
39 1 0.0 13.76035 33.955 25.87714
40 1 0.0 17.79928 9.72142 17.79928
41 1 0.0 17.79928 9.72142 21.83821
42 1 0.0 17.79928 9.72142 25.87714
43 1 0.0 17.79928 13.76035 13.76035
44 1 0.0 17.79928 13.76035 17.79928
45 1 0.0 17.79928 13.76035 21.83821
46 1 0.0 17.79928 13.76035 25.87714
47 1 0.0 17.79928 13.76035 29.91607
48 1 0.0 17.79928 17.79928 9.72142
49 1 0.0 17.79928 17.79928 13.76035
50 1 0.0 17.79928 17.79928 17.79928
51 1 0.0 17.79928 17.79928 21.83821
52 1 0.0 17.79928 17.79928 25.87714
53 1 0.0 17.79928 17.79928 29.91607
54 1 0.0 17.79928 17.79928 33.955
55 1 0.0 17.79928 21.83821 9.72142
56 1 0.0 17.79928 21.83821 13.76035
57 1 0.0 17.79928 21.83821 17.79928
58 1 0.0 17.79928 21.83821 21.83821
59 1 0.0 17.79928 21.83821 25.87714
60 1 0.0 17.79928 21.83821 29.91607
61 1 0.0 17.79928 21.83821 33.955
62 1 0.0 17.79928 25.87714 9.72142
63 1 0.0 17.79928 25.87714 13.76035
64 1 0.0 17.79928 25.87714 17.79928
65 1 0.0 17.79928 25.87714 21.83821
66 1 0.0 17.79928 25.87714 25.87714
67 1 0.0 17.79928 25.87714 29.91607
68 1 0.0 17.79928 25.87714 33.955
69 1 0.0 17.79928 29.91607 13.76035
70 1 0.0 17.79928 29.91607 17.79928
71 1 0.0 17.79928 29.91607 21.83821
72 1 0.0 17.79928 29.91607 25.87714
73 1 0.0 17.79928 29.91607 29.91607
74 1 0.0 17.79928 29.91607 33.955
75 1 0.0 17.79928 33.955 17.79928
76 1 0.0 17.79928 33.955 21.83821
77 1 0.0 17.79928 33.955 25.87714
78 1 0.0 17.79928 33.955 29.91607
79 1 0.0 21.83821 9.72142 17.79928
80 1 0.0 21.83821 9.72142 21.83821
81 1 0.0 21.83821 9.72142 25.87714
82 1 0.0 21.83821 9.72142 29.91607
83 1 0.0 21.83821 13.76035 13.76035
84 1 0.0 21.83821 13.76035 17.79928
85 1 0.0 21.83821 13.76035 21.83821
86 1 0.0 21.83821 13.76035 25.87714
87 1 0.0 21.83821 13.76035 29.91607
88 1 0.0 21.83821 13.76035 33.955
89 1 0.0 21.83821 17.79928 9.72142
90 1 0.0 21.83821 17.79928 13.76035
91 1 0.0 21.83821 17.79928 17.79928
92 1 0.0 21.83821 17.79928 21.83821
93 1 0.0 21.83821 17.79928 25.87714
94 1 0.0 21.83821 17.79928 29.91607
95 1 0.0 21.83821 17.79928 33.955
96 1 0.0 21.83821 21.83821 9.72142
97 1 0.0 21.83821 21.83821 13.76035
98 1 0.0 21.83821 21.83821 17.79928
99 1 0.0 21.83821 21.83821 21.83821
100 1 0.0 21.83821 21.83821 25.87714
101 1 0.0 21.83821 21.83821 29.91607
102 1 0.0 21.83821 21.83821 33.955
103 1 0.0 21.83821 25.87714 9.72142
104 1 0.0 21.83821 25.87714 13.76035
105 1 0.0 21.83821 25.87714 17.79928
106 1 0.0 21.83821 25.87714 21.83821
107 1 0.0 21.83821 25.87714 25.87714
108 1 0.0 21.83821 25.87714 29.91607
109 1 0.0 21.83821 25.87714 33.955
110 1 0.0 21.83821 29.91607 9.72142
111 1 0.0 21.83821 29.91607 13.76035
112 1 0.0 21.83821 29.91607 17.79928
113 1 0.0 21.83821 29.91607 21.83821
114 1 0.0 21.83821 29.91607 25.87714
115 1 0.0 21.83821 29.91607 29.91607
116 1 0.0 21.83821 29.91607 33.955
117 1 0.0 21.83821 33.955 13.76035
118 1 0.0 21.83821 33.955 17.79928
119 1 0.0 21.83821 33.955 21.83821
120 1 0.0 21.83821 33.955 25.87714
121 1 0.0 21.83821 33.955 29.91607
122 1 0.0 25.87714 9.72142 17.79928
123 1 0.0 25.87714 9.72142 21.83821
124 1 0.0 25.87714 9.72142 25.87714
125 1 0.0 25.87714 13.76035 13.76035
126 1 0.0 25.87714 13.76035 17.79928
127 1 0.0 25.87714 13.76035 21.83821
128 1 0.0 25.87714 13.76035 25.87714
129 1 0.0 25.87714 13.76035 29.91607
130 1 0.0 25.87714 13.76035 33.955
131 1 0.0 25.87714 17.79928 9.72142
132 1 0.0 25.87714 17.79928 13.76035
133 1 0.0 25.87714 17.79928 17.79928
134 1 0.0 25.87714 17.79928 21.83821
135 1 0.0 25.87714 17.79928 25.87714
136 1 0.0 25.87714 17.79928 29.91607
137 1 0.0 25.87714 17.79928 33.955
138 1 0.0 25.87714 21.83821 9.72142
139 1 0.0 25.87714 21.83821 13.76035
140 1 0.0 25.87714 21.83821 17.79928
141 1 0.0 25.87714 21.83821 21.83821
142 1 0.0 25.87714 21.83821 25.87714
143 1 0.0 25.87714 21.83821 29.91607
144 1 0.0 25.87714 21.83821 33.955
145 1 0.0 25.87714 25.87714 9.72142
146 1 0.0 25.87714 25.87714 13.76035
147 1 0.0 25.87714 25.87714 17.79928
148 1 0.0 25.87714 25.87714 21.83821
149 1 0.0 25.87714 25.87714 25.87714
150 1 0.0 25.87714 25.87714 29.91607
151 1 0.0 25.87714 25.87714 33.955
152 1 0.0 25.87714 29.91607 13.76035
153 1 0.0 25.87714 29.91607 17.79928
154 1 0.0 25.87714 29.91607 21.83821
155 1 0.0 25.87714 29.91607 25.87714
156 1 0.0 25.87714 29.91607 29.91607
157 1 0.0 25.87714 29.91607 33.955
158 1 0.0 25.87714 33.955 13.76035
159 1 0.0 25.87714 33.955 17.79928
160 1 0.0 25.87714 33.955 21.83821
161 1 0.0 25.87714 33.955 25.87714
162 1 0.0 25.87714 33.955 29.91607
163 1 0.0 29.91607 9.72142 21.83821
164 1 0.0 29.91607 13.76035 13.76035
165 1 0.0 29.91607 13.76035 17.79928
166 1 0.0 29.91607 13.76035 21.83821
167 1 0.0 29.91607 13.76035 25.87714
168 1 0.0 29.91607 13.76035 29.91607
169 1 0.0 29.91607 17.79928 13.76035
170 1 0.0 29.91607 17.79928 17.79928
171 1 0.0 29.91607 17.79928 21.83821
172 1 0.0 29.91607 17.79928 25.87714
173 1 0.0 29.91607 17.79928 29.91607
174 1 0.0 29.91607 17.79928 33.955
175 1 0.0 29.91607 21.83821 9.72142
176 1 0.0 29.91607 21.83821 13.76035
177 1 0.0 29.91607 21.83821 17.79928
178 1 0.0 29.91607 21.83821 21.83821
179 1 0.0 29.91607 21.83821 25.87714
180 1 0.0 29.91607 21.83821 29.91607
181 1 0.0 29.91607 21.83821 33.955
182 1 0.0 29.91607 25.87714 13.76035
183 1 0.0 29.91607 25.87714 17.79928
184 1 0.0 29.91607 25.87714 21.83821
185 1 0.0 29.91607 25.87714 25.87714
186 1 0.0 29.91607 25.87714 29.91607
187 1 0.0 29.91607 25.87714 33.955
188 1 0.0 29.91607 29.91607 13.76035
189 1 0.0 29.91607 29.91607 17.79928
190 1 0.0 29.91607 29.91607 21.83821
191 1 0.0 29.91607 29.91607 25.87714
192 1 0.0 29.91607 29.91607 29.91607
193 1 0.0 29.91607 33.955 17.79928
194 1 0.0 29.91607 33.955 21.83821
195 1 0.0 29.91607 33.955 25.87714
196 1 0.0 33.955 13.76035 21.83821
197 1 0.0 33.955 13.76035 25.87714
198 1 0.0 33.955 17.79928 17.79928
199 1 0.0 33.955 17.79928 21.83821
200 1 0.0 33.955 17.79928 25.87714
201 1 0.0 33.955 17.79928 29.91607
202 1 0.0 33.955 21.83821 13.76035
203 1 0.0 33.955 21.83821 17.79928
204 1 0.0 33.955 21.83821 21.83821
205 1 0.0 33.955 21.83821 25.87714
206 1 0.0 33.955 21.83821 29.91607
207 1 0.0 33.955 25.87714 13.76035
208 1 0.0 33.955 25.87714 17.79928
209 1 0.0 33.955 25.87714 21.83821
210 1 0.0 33.955 25.87714 25.87714
211 1 0.0 33.955 25.87714 29.91607
212 1 0.0 33.955 29.91607 17.79928
213 1 0.0 33.955 29.91607 21.83821
214 1 0.0 33.955 29.91607 25.87714
215 1 0.0 9.72142 15.77982 19.81875
216 1 0.0 9.72142 15.77982 23.85768
217 1 0.0 9.72142 19.81875 15.77982
218 1 0.0 9.72142 19.81875 19.81875
219 1 0.0 9.72142 19.81875 23.85768
220 1 0.0 9.72142 19.81875 27.89661
221 1 0.0 9.72142 23.85768 15.77982
222 1 0.0 9.72142 23.85768 19.81875
223 1 0.0 9.72142 23.85768 23.85768
224 1 0.0 9.72142 23.85768 27.89661
225 1 0.0 9.72142 27.89661 19.81875
226 1 0.0 9.72142 27.89661 23.85768
227 1 0.0 9.72142 27.89661 27.89661
228 1 0.0 13.76035 11.74089 19.81875
229 1 0.0 13.76035 11.74089 23.85768
230 1 0.0 13.76035 11.74089 27.89661
231 1 0.0 13.76035 15.77982 15.77982
232 1 0.0 13.76035 15.77982 19.81875
233 1 0.0 13.76035 15.77982 23.85768
234 1 0.0 13.76035 15.77982 27.89661
235 1 0.0 13.76035 15.77982 31.93554
236 1 0.0 13.76035 19.81875 11.74089
237 1 0.0 13.76035 19.81875 15.77982
238 1 0.0 13.76035 19.81875 19.81875
239 1 0.0 13.76035 19.81875 23.85768
240 1 0.0 13.76035 19.81875 27.89661
241 1 0.0 13.76035 19.81875 31.93554
242 1 0.0 13.76035 23.85768 11.74089
243 1 0.0 13.76035 23.85768 15.77982
244 1 0.0 13.76035 23.85768 19.81875
245 1 0.0 13.76035 23.85768 23.85768
246 1 0.0 13.76035 23.85768 27.89661
247 1 0.0 13.76035 23.85768 31.93554
248 1 0.0 13.76035 27.89661 11.74089
249 1 0.0 13.76035 27.89661 15.77982
250 1 0.0 13.76035 27.89661 19.81875
251 1 0.0 13.76035 27.89661 23.85768
252 1 0.0 13.76035 27.89661 27.89661
253 1 0.0 13.76035 27.89661 31.93554
254 1 0.0 13.76035 31.93554 15.77982
255 1 0.0 13.76035 31.93554 19.81875
256 1 0.0 13.76035 31.93554 23.85768
257 1 0.0 13.76035 31.93554 27.89661
258 1 0.0 17.79928 11.74089 15.77982
259 1 0.0 17.79928 11.74089 19.81875
260 1 0.0 17.79928 11.74089 23.85768
261 1 0.0 17.79928 11.74089 27.89661
262 1 0.0 17.79928 15.77982 11.74089
263 1 0.0 17.79928 15.77982 15.77982
264 1 0.0 17.79928 15.77982 19.81875
265 1 0.0 17.79928 15.77982 23.85768
266 1 0.0 17.79928 15.77982 27.89661
267 1 0.0 17.79928 15.77982 31.93554
268 1 0.0 17.79928 19.81875 11.74089
269 1 0.0 17.79928 19.81875 15.77982
270 1 0.0 17.79928 19.81875 19.81875
271 1 0.0 17.79928 19.81875 23.85768
272 1 0.0 17.79928 19.81875 27.89661
273 1 0.0 17.79928 19.81875 31.93554
274 1 0.0 17.79928 19.81875 35.97447
275 1 0.0 17.79928 23.85768 11.74089
276 1 0.0 17.79928 23.85768 15.77982
277 1 0.0 17.79928 23.85768 19.81875
278 1 0.0 17.79928 23.85768 23.85768
279 1 0.0 17.79928 23.85768 27.89661
280 1 0.0 17.79928 23.85768 31.93554
281 1 0.0 17.79928 23.85768 35.97447
282 1 0.0 17.79928 27.89661 11.74089
283 1 0.0 17.79928 27.89661 15.77982
284 1 0.0 17.79928 27.89661 19.81875
285 1 0.0 17.79928 27.89661 23.85768
286 1 0.0 17.79928 27.89661 27.89661
287 1 0.0 17.79928 27.89661 31.93554
288 1 0.0 17.79928 31.93554 15.77982
289 1 0.0 17.79928 31.93554 19.81875
290 1 0.0 17.79928 31.93554 23.85768
291 1 0.0 17.79928 31.93554 27.89661
292 1 0.0 17.79928 31.93554 31.93554
293 1 0.0 17.79928 35.97447 19.81875
294 1 0.0 17.79928 35.97447 23.85768
295 1 0.0 21.83821 7.70196 23.85768
296 1 0.0 21.83821 11.74089 15.77982
297 1 0.0 21.83821 11.74089 19.81875
298 1 0.0 21.83821 11.74089 23.85768
299 1 0.0 21.83821 11.74089 27.89661
300 1 0.0 21.83821 11.74089 31.93554
301 1 0.0 21.83821 15.77982 11.74089
302 1 0.0 21.83821 15.77982 15.77982
303 1 0.0 21.83821 15.77982 19.81875
304 1 0.0 21.83821 15.77982 23.85768
305 1 0.0 21.83821 15.77982 27.89661
306 1 0.0 21.83821 15.77982 31.93554
307 1 0.0 21.83821 19.81875 11.74089
308 1 0.0 21.83821 19.81875 15.77982
309 1 0.0 21.83821 19.81875 19.81875
310 1 0.0 21.83821 19.81875 23.85768
311 1 0.0 21.83821 19.81875 27.89661
312 1 0.0 21.83821 19.81875 31.93554
313 1 0.0 21.83821 19.81875 35.97447
314 1 0.0 21.83821 23.85768 7.70196
315 1 0.0 21.83821 23.85768 11.74089
316 1 0.0 21.83821 23.85768 15.77982
317 1 0.0 21.83821 23.85768 19.81875
318 1 0.0 21.83821 23.85768 23.85768
319 1 0.0 21.83821 23.85768 27.89661
320 1 0.0 21.83821 23.85768 31.93554
321 1 0.0 21.83821 23.85768 35.97447
322 1 0.0 21.83821 27.89661 11.74089
323 1 0.0 21.83821 27.89661 15.77982
324 1 0.0 21.83821 27.89661 19.81875
325 1 0.0 21.83821 27.89661 23.85768
326 1 0.0 21.83821 27.89661 27.89661
327 1 0.0 21.83821 27.89661 31.93554
328 1 0.0 21.83821 27.89661 35.97447
329 1 0.0 21.83821 31.93554 11.74089
330 1 0.0 21.83821 31.93554 15.77982
331 1 0.0 21.83821 31.93554 19.81875
332 1 0.0 21.83821 31.93554 23.85768
333 1 0.0 21.83821 31.93554 27.89661
334 1 0.0 21.83821 31.93554 31.93554
335 1 0.0 21.83821 35.97447 19.81875
336 1 0.0 21.83821 35.97447 23.85768
337 1 0.0 21.83821 35.97447 27.89661
338 1 0.0 25.87714 11.74089 15.77982
339 1 0.0 25.87714 11.74089 19.81875
340 1 0.0 25.87714 11.74089 23.85768
341 1 0.0 25.87714 11.74089 27.89661
342 1 0.0 25.87714 11.74089 31.93554
343 1 0.0 25.87714 15.77982 11.74089
344 1 0.0 25.87714 15.77982 15.77982
345 1 0.0 25.87714 15.77982 19.81875
346 1 0.0 25.87714 15.77982 23.85768
347 1 0.0 25.87714 15.77982 27.89661
348 1 0.0 25.87714 15.77982 31.93554
349 1 0.0 25.87714 19.81875 11.74089
350 1 0.0 25.87714 19.81875 15.77982
351 1 0.0 25.87714 19.81875 19.81875
352 1 0.0 25.87714 19.81875 23.85768
353 1 0.0 25.87714 19.81875 27.89661
354 1 0.0 25.87714 19.81875 31.93554
355 1 0.0 25.87714 19.81875 35.97447
356 1 0.0 25.87714 23.85768 11.74089
357 1 0.0 25.87714 23.85768 15.77982
358 1 0.0 25.87714 23.85768 19.81875
359 1 0.0 25.87714 23.85768 23.85768
360 1 0.0 25.87714 23.85768 27.89661
361 1 0.0 25.87714 23.85768 31.93554
362 1 0.0 25.87714 23.85768 35.97447
363 1 0.0 25.87714 27.89661 11.74089
364 1 0.0 25.87714 27.89661 15.77982
365 1 0.0 25.87714 27.89661 19.81875
366 1 0.0 25.87714 27.89661 23.85768
367 1 0.0 25.87714 27.89661 27.89661
368 1 0.0 25.87714 27.89661 31.93554
369 1 0.0 25.87714 27.89661 35.97447
370 1 0.0 25.87714 31.93554 11.74089
371 1 0.0 25.87714 31.93554 15.77982
372 1 0.0 25.87714 31.93554 19.81875
373 1 0.0 25.87714 31.93554 23.85768
374 1 0.0 25.87714 31.93554 27.89661
375 1 0.0 25.87714 31.93554 31.93554
376 1 0.0 25.87714 35.97447 19.81875
377 1 0.0 25.87714 35.97447 23.85768
378 1 0.0 25.87714 35.97447 27.89661
379 1 0.0 29.91607 11.74089 15.77982
380 1 0.0 29.91607 11.74089 19.81875
381 1 0.0 29.91607 11.74089 23.85768
382 1 0.0 29.91607 11.74089 27.89661
383 1 0.0 29.91607 15.77982 11.74089
384 1 0.0 29.91607 15.77982 15.77982
385 1 0.0 29.91607 15.77982 19.81875
386 1 0.0 29.91607 15.77982 23.85768
387 1 0.0 29.91607 15.77982 27.89661
388 1 0.0 29.91607 15.77982 31.93554
389 1 0.0 29.91607 19.81875 11.74089
390 1 0.0 29.91607 19.81875 15.77982
391 1 0.0 29.91607 19.81875 19.81875
392 1 0.0 29.91607 19.81875 23.85768
393 1 0.0 29.91607 19.81875 27.89661
394 1 0.0 29.91607 19.81875 31.93554
395 1 0.0 29.91607 23.85768 11.74089
396 1 0.0 29.91607 23.85768 15.77982
397 1 0.0 29.91607 23.85768 19.81875
398 1 0.0 29.91607 23.85768 23.85768
399 1 0.0 29.91607 23.85768 27.89661
400 1 0.0 29.91607 23.85768 31.93554
401 1 0.0 29.91607 27.89661 11.74089
402 1 0.0 29.91607 27.89661 15.77982
403 1 0.0 29.91607 27.89661 19.81875
404 1 0.0 29.91607 27.89661 23.85768
405 1 0.0 29.91607 27.89661 27.89661
406 1 0.0 29.91607 27.89661 31.93554
407 1 0.0 29.91607 31.93554 15.77982
408 1 0.0 29.91607 31.93554 19.81875
409 1 0.0 29.91607 31.93554 23.85768
410 1 0.0 29.91607 31.93554 27.89661
411 1 0.0 33.955 15.77982 15.77982
412 1 0.0 33.955 15.77982 19.81875
413 1 0.0 33.955 15.77982 23.85768
414 1 0.0 33.955 15.77982 27.89661
415 1 0.0 33.955 19.81875 15.77982
416 1 0.0 33.955 19.81875 19.81875
417 1 0.0 33.955 19.81875 23.85768
418 1 0.0 33.955 19.81875 27.89661
419 1 0.0 33.955 23.85768 15.77982
420 1 0.0 33.955 23.85768 19.81875
421 1 0.0 33.955 23.85768 23.85768
422 1 0.0 33.955 23.85768 27.89661
423 1 0.0 33.955 23.85768 31.93554
424 1 0.0 33.955 27.89661 15.77982
425 1 0.0 33.955 27.89661 19.81875
426 1 0.0 33.955 27.89661 23.85768
427 1 0.0 33.955 27.89661 27.89661
428 1 0.0 33.955 31.93554 23.85768
429 1 0.0 7.70196 21.83821 23.85768
430 1 0.0 11.74089 13.76035 19.81875
431 1 0.0 11.74089 13.76035 23.85768
432 1 0.0 11.74089 13.76035 27.89661
433 1 0.0 11.74089 17.79928 15.77982
434 1 0.0 11.74089 17.79928 19.81875
435 1 0.0 11.74089 17.79928 23.85768
436 1 0.0 11.74089 17.79928 27.89661
437 1 0.0 11.74089 21.83821 15.77982
438 1 0.0 11.74089 21.83821 19.81875
439 1 0.0 11.74089 21.83821 23.85768
440 1 0.0 11.74089 21.83821 27.89661
441 1 0.0 11.74089 21.83821 31.93554
442 1 0.0 11.74089 25.87714 15.77982
443 1 0.0 11.74089 25.87714 19.81875
444 1 0.0 11.74089 25.87714 23.85768
445 1 0.0 11.74089 25.87714 27.89661
446 1 0.0 11.74089 25.87714 31.93554
447 1 0.0 11.74089 29.91607 15.77982
448 1 0.0 11.74089 29.91607 19.81875
449 1 0.0 11.74089 29.91607 23.85768
450 1 0.0 11.74089 29.91607 27.89661
451 1 0.0 15.77982 9.72142 19.81875
452 1 0.0 15.77982 9.72142 23.85768
453 1 0.0 15.77982 13.76035 15.77982
454 1 0.0 15.77982 13.76035 19.81875
455 1 0.0 15.77982 13.76035 23.85768
456 1 0.0 15.77982 13.76035 27.89661
457 1 0.0 15.77982 13.76035 31.93554
458 1 0.0 15.77982 17.79928 11.74089
459 1 0.0 15.77982 17.79928 15.77982
460 1 0.0 15.77982 17.79928 19.81875
461 1 0.0 15.77982 17.79928 23.85768
462 1 0.0 15.77982 17.79928 27.89661
463 1 0.0 15.77982 17.79928 31.93554
464 1 0.0 15.77982 21.83821 11.74089
465 1 0.0 15.77982 21.83821 15.77982
466 1 0.0 15.77982 21.83821 19.81875
467 1 0.0 15.77982 21.83821 23.85768
468 1 0.0 15.77982 21.83821 27.89661
469 1 0.0 15.77982 21.83821 31.93554
470 1 0.0 15.77982 25.87714 11.74089
471 1 0.0 15.77982 25.87714 15.77982
472 1 0.0 15.77982 25.87714 19.81875
473 1 0.0 15.77982 25.87714 23.85768
474 1 0.0 15.77982 25.87714 27.89661
475 1 0.0 15.77982 25.87714 31.93554
476 1 0.0 15.77982 29.91607 11.74089
477 1 0.0 15.77982 29.91607 15.77982
478 1 0.0 15.77982 29.91607 19.81875
479 1 0.0 15.77982 29.91607 23.85768
480 1 0.0 15.77982 29.91607 27.89661
481 1 0.0 15.77982 29.91607 31.93554
482 1 0.0 15.77982 33.955 15.77982
483 1 0.0 15.77982 33.955 19.81875
484 1 0.0 15.77982 33.955 23.85768
485 1 0.0 15.77982 33.955 27.89661
486 1 0.0 19.81875 9.72142 15.77982
487 1 0.0 19.81875 9.72142 19.81875
488 1 0.0 19.81875 9.72142 23.85768
489 1 0.0 19.81875 9.72142 27.89661
490 1 0.0 19.81875 13.76035 11.74089
491 1 0.0 19.81875 13.76035 15.77982
492 1 0.0 19.81875 13.76035 19.81875
493 1 0.0 19.81875 13.76035 23.85768
494 1 0.0 19.81875 13.76035 27.89661
495 1 0.0 19.81875 13.76035 31.93554
496 1 0.0 19.81875 17.79928 11.74089
497 1 0.0 19.81875 17.79928 15.77982
498 1 0.0 19.81875 17.79928 19.81875
499 1 0.0 19.81875 17.79928 23.85768
500 1 0.0 19.81875 17.79928 27.89661
501 1 0.0 19.81875 17.79928 31.93554
502 1 0.0 19.81875 17.79928 35.97447
503 1 0.0 19.81875 21.83821 11.74089
504 1 0.0 19.81875 21.83821 15.77982
505 1 0.0 19.81875 21.83821 19.81875
506 1 0.0 19.81875 21.83821 23.85768
507 1 0.0 19.81875 21.83821 27.89661
508 1 0.0 19.81875 21.83821 31.93554
509 1 0.0 19.81875 21.83821 35.97447
510 1 0.0 19.81875 25.87714 11.74089
511 1 0.0 19.81875 25.87714 15.77982
512 1 0.0 19.81875 25.87714 19.81875
513 1 0.0 19.81875 25.87714 23.85768
514 1 0.0 19.81875 25.87714 27.89661
515 1 0.0 19.81875 25.87714 31.93554
516 1 0.0 19.81875 25.87714 35.97447
517 1 0.0 19.81875 29.91607 11.74089
518 1 0.0 19.81875 29.91607 15.77982
519 1 0.0 19.81875 29.91607 19.81875
520 1 0.0 19.81875 29.91607 23.85768
521 1 0.0 19.81875 29.91607 27.89661
522 1 0.0 19.81875 29.91607 31.93554
523 1 0.0 19.81875 33.955 15.77982
524 1 0.0 19.81875 33.955 19.81875
525 1 0.0 19.81875 33.955 23.85768
526 1 0.0 19.81875 33.955 27.89661
527 1 0.0 23.85768 9.72142 15.77982
528 1 0.0 23.85768 9.72142 19.81875
529 1 0.0 23.85768 9.72142 23.85768
530 1 0.0 23.85768 9.72142 27.89661
531 1 0.0 23.85768 13.76035 11.74089
532 1 0.0 23.85768 13.76035 15.77982
533 1 0.0 23.85768 13.76035 19.81875
534 1 0.0 23.85768 13.76035 23.85768
535 1 0.0 23.85768 13.76035 27.89661
536 1 0.0 23.85768 13.76035 31.93554
537 1 0.0 23.85768 17.79928 11.74089
538 1 0.0 23.85768 17.79928 15.77982
539 1 0.0 23.85768 17.79928 19.81875
540 1 0.0 23.85768 17.79928 23.85768
541 1 0.0 23.85768 17.79928 27.89661
542 1 0.0 23.85768 17.79928 31.93554
543 1 0.0 23.85768 17.79928 35.97447
544 1 0.0 23.85768 21.83821 7.70196
545 1 0.0 23.85768 21.83821 11.74089
546 1 0.0 23.85768 21.83821 15.77982
547 1 0.0 23.85768 21.83821 19.81875
548 1 0.0 23.85768 21.83821 23.85768
549 1 0.0 23.85768 21.83821 27.89661
550 1 0.0 23.85768 21.83821 31.93554
551 1 0.0 23.85768 21.83821 35.97447
552 1 0.0 23.85768 25.87714 11.74089
553 1 0.0 23.85768 25.87714 15.77982
554 1 0.0 23.85768 25.87714 19.81875
555 1 0.0 23.85768 25.87714 23.85768
556 1 0.0 23.85768 25.87714 27.89661
557 1 0.0 23.85768 25.87714 31.93554
558 1 0.0 23.85768 25.87714 35.97447
559 1 0.0 23.85768 29.91607 11.74089
560 1 0.0 23.85768 29.91607 15.77982
561 1 0.0 23.85768 29.91607 19.81875
562 1 0.0 23.85768 29.91607 23.85768
563 1 0.0 23.85768 29.91607 27.89661
564 1 0.0 23.85768 29.91607 31.93554
565 1 0.0 23.85768 33.955 15.77982
566 1 0.0 23.85768 33.955 19.81875
567 1 0.0 23.85768 33.955 23.85768
568 1 0.0 23.85768 33.955 27.89661
569 1 0.0 23.85768 33.955 31.93554
570 1 0.0 27.89661 9.72142 19.81875
571 1 0.0 27.89661 9.72142 23.85768
572 1 0.0 27.89661 9.72142 27.89661
573 1 0.0 27.89661 13.76035 11.74089
574 1 0.0 27.89661 13.76035 15.77982
575 1 0.0 27.89661 13.76035 19.81875
576 1 0.0 27.89661 13.76035 23.85768
577 1 0.0 27.89661 13.76035 27.89661
578 1 0.0 27.89661 13.76035 31.93554
579 1 0.0 27.89661 17.79928 11.74089
580 1 0.0 27.89661 17.79928 15.77982
581 1 0.0 27.89661 17.79928 19.81875
582 1 0.0 27.89661 17.79928 23.85768
583 1 0.0 27.89661 17.79928 27.89661
584 1 0.0 27.89661 17.79928 31.93554
585 1 0.0 27.89661 21.83821 11.74089
586 1 0.0 27.89661 21.83821 15.77982
587 1 0.0 27.89661 21.83821 19.81875
588 1 0.0 27.89661 21.83821 23.85768
589 1 0.0 27.89661 21.83821 27.89661
590 1 0.0 27.89661 21.83821 31.93554
591 1 0.0 27.89661 21.83821 35.97447
592 1 0.0 27.89661 25.87714 11.74089
593 1 0.0 27.89661 25.87714 15.77982
594 1 0.0 27.89661 25.87714 19.81875
595 1 0.0 27.89661 25.87714 23.85768
596 1 0.0 27.89661 25.87714 27.89661
597 1 0.0 27.89661 25.87714 31.93554
598 1 0.0 27.89661 25.87714 35.97447
599 1 0.0 27.89661 29.91607 11.74089
600 1 0.0 27.89661 29.91607 15.77982
601 1 0.0 27.89661 29.91607 19.81875
602 1 0.0 27.89661 29.91607 23.85768
603 1 0.0 27.89661 29.91607 27.89661
604 1 0.0 27.89661 29.91607 31.93554
605 1 0.0 27.89661 33.955 15.77982
606 1 0.0 27.89661 33.955 19.81875
607 1 0.0 27.89661 33.955 23.85768
608 1 0.0 27.89661 33.955 27.89661
609 1 0.0 31.93554 13.76035 15.77982
610 1 0.0 31.93554 13.76035 19.81875
611 1 0.0 31.93554 13.76035 23.85768
612 1 0.0 31.93554 13.76035 27.89661
613 1 0.0 31.93554 17.79928 15.77982
614 1 0.0 31.93554 17.79928 19.81875
615 1 0.0 31.93554 17.79928 23.85768
616 1 0.0 31.93554 17.79928 27.89661
617 1 0.0 31.93554 17.79928 31.93554
618 1 0.0 31.93554 21.83821 11.74089
619 1 0.0 31.93554 21.83821 15.77982
620 1 0.0 31.93554 21.83821 19.81875
621 1 0.0 31.93554 21.83821 23.85768
622 1 0.0 31.93554 21.83821 27.89661
623 1 0.0 31.93554 21.83821 31.93554
624 1 0.0 31.93554 25.87714 11.74089
625 1 0.0 31.93554 25.87714 15.77982
626 1 0.0 31.93554 25.87714 19.81875
627 1 0.0 31.93554 25.87714 23.85768
628 1 0.0 31.93554 25.87714 27.89661
629 1 0.0 31.93554 25.87714 31.93554
630 1 0.0 31.93554 29.91607 15.77982
631 1 0.0 31.93554 29.91607 19.81875
632 1 0.0 31.93554 29.91607 23.85768
633 1 0.0 31.93554 29.91607 27.89661
634 1 0.0 31.93554 33.955 23.85768
635 1 0.0 35.97447 17.79928 19.81875
636 1 0.0 35.97447 17.79928 23.85768
637 1 0.0 35.97447 21.83821 19.81875
638 1 0.0 35.97447 21.83821 23.85768
639 1 0.0 35.97447 21.83821 27.89661
640 1 0.0 35.97447 25.87714 19.81875
641 1 0.0 35.97447 25.87714 23.85768
642 1 0.0 35.97447 25.87714 27.89661
643 1 0.0 7.70196 23.85768 21.83821
644 1 0.0 11.74089 15.77982 17.79928
645 1 0.0 11.74089 15.77982 21.83821
646 1 0.0 11.74089 15.77982 25.87714
647 1 0.0 11.74089 15.77982 29.91607
648 1 0.0 11.74089 19.81875 13.76035
649 1 0.0 11.74089 19.81875 17.79928
650 1 0.0 11.74089 19.81875 21.83821
651 1 0.0 11.74089 19.81875 25.87714
652 1 0.0 11.74089 19.81875 29.91607
653 1 0.0 11.74089 23.85768 13.76035
654 1 0.0 11.74089 23.85768 17.79928
655 1 0.0 11.74089 23.85768 21.83821
656 1 0.0 11.74089 23.85768 25.87714
657 1 0.0 11.74089 23.85768 29.91607
658 1 0.0 11.74089 27.89661 13.76035
659 1 0.0 11.74089 27.89661 17.79928
660 1 0.0 11.74089 27.89661 21.83821
661 1 0.0 11.74089 27.89661 25.87714
662 1 0.0 11.74089 27.89661 29.91607
663 1 0.0 11.74089 31.93554 21.83821
664 1 0.0 11.74089 31.93554 25.87714
665 1 0.0 15.77982 11.74089 17.79928
666 1 0.0 15.77982 11.74089 21.83821
667 1 0.0 15.77982 11.74089 25.87714
668 1 0.0 15.77982 11.74089 29.91607
669 1 0.0 15.77982 15.77982 13.76035
670 1 0.0 15.77982 15.77982 17.79928
671 1 0.0 15.77982 15.77982 21.83821
672 1 0.0 15.77982 15.77982 25.87714
673 1 0.0 15.77982 15.77982 29.91607
674 1 0.0 15.77982 15.77982 33.955
675 1 0.0 15.77982 19.81875 9.72142
676 1 0.0 15.77982 19.81875 13.76035
677 1 0.0 15.77982 19.81875 17.79928
678 1 0.0 15.77982 19.81875 21.83821
679 1 0.0 15.77982 19.81875 25.87714
680 1 0.0 15.77982 19.81875 29.91607
681 1 0.0 15.77982 19.81875 33.955
682 1 0.0 15.77982 23.85768 9.72142
683 1 0.0 15.77982 23.85768 13.76035
684 1 0.0 15.77982 23.85768 17.79928
685 1 0.0 15.77982 23.85768 21.83821
686 1 0.0 15.77982 23.85768 25.87714
687 1 0.0 15.77982 23.85768 29.91607
688 1 0.0 15.77982 23.85768 33.955
689 1 0.0 15.77982 27.89661 13.76035
690 1 0.0 15.77982 27.89661 17.79928
691 1 0.0 15.77982 27.89661 21.83821
692 1 0.0 15.77982 27.89661 25.87714
693 1 0.0 15.77982 27.89661 29.91607
694 1 0.0 15.77982 27.89661 33.955
695 1 0.0 15.77982 31.93554 13.76035
696 1 0.0 15.77982 31.93554 17.79928
697 1 0.0 15.77982 31.93554 21.83821
698 1 0.0 15.77982 31.93554 25.87714
699 1 0.0 15.77982 31.93554 29.91607
700 1 0.0 19.81875 11.74089 13.76035
701 1 0.0 19.81875 11.74089 17.79928
702 1 0.0 19.81875 11.74089 21.83821
703 1 0.0 19.81875 11.74089 25.87714
704 1 0.0 19.81875 11.74089 29.91607
705 1 0.0 19.81875 15.77982 9.72142
706 1 0.0 19.81875 15.77982 13.76035
707 1 0.0 19.81875 15.77982 17.79928
708 1 0.0 19.81875 15.77982 21.83821
709 1 0.0 19.81875 15.77982 25.87714
710 1 0.0 19.81875 15.77982 29.91607
711 1 0.0 19.81875 15.77982 33.955
712 1 0.0 19.81875 19.81875 9.72142
713 1 0.0 19.81875 19.81875 13.76035
714 1 0.0 19.81875 19.81875 17.79928
715 1 0.0 19.81875 19.81875 21.83821
716 1 0.0 19.81875 19.81875 25.87714
717 1 0.0 19.81875 19.81875 29.91607
718 1 0.0 19.81875 19.81875 33.955
719 1 0.0 19.81875 23.85768 9.72142
720 1 0.0 19.81875 23.85768 13.76035
721 1 0.0 19.81875 23.85768 17.79928
722 1 0.0 19.81875 23.85768 21.83821
723 1 0.0 19.81875 23.85768 25.87714
724 1 0.0 19.81875 23.85768 29.91607
725 1 0.0 19.81875 23.85768 33.955
726 1 0.0 19.81875 27.89661 9.72142
727 1 0.0 19.81875 27.89661 13.76035
728 1 0.0 19.81875 27.89661 17.79928
729 1 0.0 19.81875 27.89661 21.83821
730 1 0.0 19.81875 27.89661 25.87714
731 1 0.0 19.81875 27.89661 29.91607
732 1 0.0 19.81875 27.89661 33.955
733 1 0.0 19.81875 31.93554 13.76035
734 1 0.0 19.81875 31.93554 17.79928
735 1 0.0 19.81875 31.93554 21.83821
736 1 0.0 19.81875 31.93554 25.87714
737 1 0.0 19.81875 31.93554 29.91607
738 1 0.0 19.81875 35.97447 17.79928
739 1 0.0 19.81875 35.97447 21.83821
740 1 0.0 19.81875 35.97447 25.87714
741 1 0.0 23.85768 7.70196 21.83821
742 1 0.0 23.85768 11.74089 13.76035
743 1 0.0 23.85768 11.74089 17.79928
744 1 0.0 23.85768 11.74089 21.83821
745 1 0.0 23.85768 11.74089 25.87714
746 1 0.0 23.85768 11.74089 29.91607
747 1 0.0 23.85768 15.77982 9.72142
748 1 0.0 23.85768 15.77982 13.76035
749 1 0.0 23.85768 15.77982 17.79928
750 1 0.0 23.85768 15.77982 21.83821
751 1 0.0 23.85768 15.77982 25.87714
752 1 0.0 23.85768 15.77982 29.91607
753 1 0.0 23.85768 15.77982 33.955
754 1 0.0 23.85768 19.81875 9.72142
755 1 0.0 23.85768 19.81875 13.76035
756 1 0.0 23.85768 19.81875 17.79928
757 1 0.0 23.85768 19.81875 21.83821
758 1 0.0 23.85768 19.81875 25.87714
759 1 0.0 23.85768 19.81875 29.91607
760 1 0.0 23.85768 19.81875 33.955
761 1 0.0 23.85768 23.85768 9.72142
762 1 0.0 23.85768 23.85768 13.76035
763 1 0.0 23.85768 23.85768 17.79928
764 1 0.0 23.85768 23.85768 21.83821
765 1 0.0 23.85768 23.85768 25.87714
766 1 0.0 23.85768 23.85768 29.91607
767 1 0.0 23.85768 23.85768 33.955
768 1 0.0 23.85768 27.89661 9.72142
769 1 0.0 23.85768 27.89661 13.76035
770 1 0.0 23.85768 27.89661 17.79928
771 1 0.0 23.85768 27.89661 21.83821
772 1 0.0 23.85768 27.89661 25.87714
773 1 0.0 23.85768 27.89661 29.91607
774 1 0.0 23.85768 27.89661 33.955
775 1 0.0 23.85768 31.93554 13.76035
776 1 0.0 23.85768 31.93554 17.79928
777 1 0.0 23.85768 31.93554 21.83821
778 1 0.0 23.85768 31.93554 25.87714
779 1 0.0 23.85768 31.93554 29.91607
780 1 0.0 23.85768 31.93554 33.955
781 1 0.0 23.85768 35.97447 17.79928
782 1 0.0 23.85768 35.97447 21.83821
783 1 0.0 23.85768 35.97447 25.87714
784 1 0.0 27.89661 11.74089 13.76035
785 1 0.0 27.89661 11.74089 17.79928
786 1 0.0 27.89661 11.74089 21.83821
787 1 0.0 27.89661 11.74089 25.87714
788 1 0.0 27.89661 11.74089 29.91607
789 1 0.0 27.89661 15.77982 13.76035
790 1 0.0 27.89661 15.77982 17.79928
791 1 0.0 27.89661 15.77982 21.83821
792 1 0.0 27.89661 15.77982 25.87714
793 1 0.0 27.89661 15.77982 29.91607
794 1 0.0 27.89661 15.77982 33.955
795 1 0.0 27.89661 19.81875 9.72142