# LAMMPS data file written by Ovito Basic 3.0.0-dev791
805 atoms
2 atom types
0.0 49.3544807434 xlo xhi
0.0 42.7422332764 ylo yhi
0.0 50.0 zlo zhi

Atoms  # charge

1 1 0.0 0.0 0.0 6.51377821
2 1 0.0 0.0 8.548446655 6.51377821
3 1 0.0 0.0 17.096893311 6.51377821
4 1 0.0 0.0 25.645341873 6.51377821
5 1 0.0 0.0 34.193786621 6.51377821
6 1 0.0 9.870896339 0.0 6.51377821
7 1 0.0 9.870896339 8.548446655 6.51377821
8 1 0.0 9.870896339 17.096893311 6.51377821
9 1 0.0 9.870896339 25.645341873 6.51377821
10 1 0.0 9.870896339 34.193786621 6.51377821
11 1 0.0 19.741792679 0.0 6.51377821
12 1 0.0 19.741792679 8.548446655 6.51377821
13 1 0.0 19.741792679 17.096893311 6.51377821
14 1 0.0 19.741792679 25.645341873 6.51377821
15 1 0.0 19.741792679 34.193786621 6.51377821
16 1 0.0 29.612689972 0.0 6.51377821
17 1 0.0 29.612689972 8.548446655 6.51377821
18 1 0.0 29.612689972 17.096893311 6.51377821
19 1 0.0 29.612689972 25.645341873 6.51377821
20 1 0.0 29.612689972 34.193786621 6.51377821
21 1 0.0 39.483585358 0.0 6.51377821
22 1 0.0 39.483585358 8.548446655 6.51377821
23 1 0.0 39.483585358 17.096893311 6.51377821
24 1 0.0 39.483585358 25.645341873 6.51377821
25 1 0.0 39.483585358 34.193786621 6.51377821
26 1 0.0 0.0 4.274223328 6.51377821
27 1 0.0 0.0 12.822670937 6.51377821
28 1 0.0 0.0 21.371116638 6.51377821
29 1 0.0 0.0 29.919565201 6.51377821
30 1 0.0 0.0 38.468009949 6.51377821
31 1 0.0 9.870896339 4.274223328 6.51377821
32 1 0.0 9.870896339 12.822670937 6.51377821
33 1 0.0 9.870896339 21.371116638 6.51377821
34 1 0.0 9.870896339 29.919565201 6.51377821
35 1 0.0 9.870896339 38.468009949 6.51377821
36 1 0.0 19.741792679 4.274223328 6.51377821
37 1 0.0 19.741792679 12.822670937 6.51377821
38 1 0.0 19.741792679 21.371116638 6.51377821
39 1 0.0 19.741792679 29.919565201 6.51377821
40 1 0.0 19.741792679 38.468009949 6.51377821
41 1 0.0 29.612689972 4.274223328 6.51377821
42 1 0.0 29.612689972 12.822670937 6.51377821
43 1 0.0 29.612689972 21.371116638 6.51377821
44 1 0.0 29.612689972 29.919565201 6.51377821
45 1 0.0 29.612689972 38.468009949 6.51377821
46 1 0.0 39.483585358 4.274223328 6.51377821
47 1 0.0 39.483585358 12.822670937 6.51377821
48 1 0.0 39.483585358 21.371116638 6.51377821
49 1 0.0 39.483585358 29.919565201 6.51377821
50 1 0.0 39.483585358 38.468009949 6.51377821
51 1 0.0 2.467724085 0.0 6.51377821
52 1 0.0 2.467724085 8.548446655 6.51377821
53 1 0.0 2.467724085 17.096893311 6.51377821
54 1 0.0 2.467724085 25.645341873 6.51377821
55 1 0.0 2.467724085 34.193786621 6.51377821
56 1 0.0 12.338620186 0.0 6.51377821
57 1 0.0 12.338620186 8.548446655 6.51377821
58 1 0.0 12.338620186 17.096893311 6.51377821
59 1 0.0 12.338620186 25.645341873 6.51377821
60 1 0.0 12.338620186 34.193786621 6.51377821
61 1 0.0 22.209516525 0.0 6.51377821
62 1 0.0 22.209516525 8.548446655 6.51377821
63 1 0.0 22.209516525 17.096893311 6.51377821
64 1 0.0 22.209516525 25.645341873 6.51377821
65 1 0.0 22.209516525 34.193786621 6.51377821
66 1 0.0 32.080413818 0.0 6.51377821
67 1 0.0 32.080413818 8.548446655 6.51377821
68 1 0.0 32.080413818 17.096893311 6.51377821
69 1 0.0 32.080413818 25.645341873 6.51377821
70 1 0.0 32.080413818 34.193786621 6.51377821
71 1 0.0 41.951309204 0.0 6.51377821
72 1 0.0 41.951309204 8.548446655 6.51377821
73 1 0.0 41.951309204 17.096893311 6.51377821
74 1 0.0 41.951309204 25.645341873 6.51377821
75 1 0.0 41.951309204 34.193786621 6.51377821
76 1 0.0 2.467724085 4.274223328 6.51377821
77 1 0.0 2.467724085 12.822670937 6.51377821
78 1 0.0 2.467724085 21.371116638 6.51377821
79 1 0.0 2.467724085 29.919565201 6.51377821
80 1 0.0 2.467724085 38.468009949 6.51377821
81 1 0.0 12.338620186 4.274223328 6.51377821
82 1 0.0 12.338620186 12.822670937 6.51377821
83 1 0.0 12.338620186 21.371116638 6.51377821
84 1 0.0 12.338620186 29.919565201 6.51377821
85 1 0.0 12.338620186 38.468009949 6.51377821
86 1 0.0 22.209516525 4.274223328 6.51377821
87 1 0.0 22.209516525 12.822670937 6.51377821
88 1 0.0 22.209516525 21.371116638 6.51377821
89 1 0.0 22.209516525 29.919565201 6.51377821
90 1 0.0 22.209516525 38.468009949 6.51377821
91 1 0.0 32.080413818 4.274223328 6.51377821
92 1 0.0 32.080413818 12.822670937 6.51377821
93 1 0.0 32.080413818 21.371116638 6.51377821
94 1 0.0 32.080413818 29.919565201 6.51377821
95 1 0.0 32.080413818 38.468009949 6.51377821
96 1 0.0 41.951309204 4.274223328 6.51377821
97 1 0.0 41.951309204 12.822670937 6.51377821
98 1 0.0 41.951309204 21.371116638 6.51377821
99 1 0.0 41.951309204 29.919565201 6.51377821
100 1 0.0 41.951309204 38.468009949 6.51377821
101 1 0.0 4.93544817 0.0 6.51377821
102 1 0.0 4.93544817 8.548446655 6.51377821
103 1 0.0 4.93544817 17.096893311 6.51377821
104 1 0.0 4.93544817 25.645341873 6.51377821
105 1 0.0 4.93544817 34.193786621 6.51377821
106 1 0.0 14.806344986 0.0 6.51377821
107 1 0.0 14.806344986 8.548446655 6.51377821
108 1 0.0 14.806344986 17.096893311 6.51377821
109 1 0.0 14.806344986 25.645341873 6.51377821
110 1 0.0 14.806344986 34.193786621 6.51377821
111 1 0.0 24.677240372 0.0 6.51377821
112 1 0.0 24.677240372 8.548446655 6.51377821
113 1 0.0 24.677240372 17.096893311 6.51377821
114 1 0.0 24.677240372 25.645341873 6.51377821
115 1 0.0 24.677240372 34.193786621 6.51377821
116 1 0.0 34.548137665 0.0 6.51377821
117 1 0.0 34.548137665 8.548446655 6.51377821
118 1 0.0 34.548137665 17.096893311 6.51377821
119 1 0.0 34.548137665 25.645341873 6.51377821
120 1 0.0 34.548137665 34.193786621 6.51377821
121 1 0.0 44.419033051 0.0 6.51377821
122 1 0.0 44.419033051 8.548446655 6.51377821
123 1 0.0 44.419033051 17.096893311 6.51377821
124 1 0.0 44.419033051 25.645341873 6.51377821
125 1 0.0 44.419033051 34.193786621 6.51377821
126 1 0.0 4.93544817 4.274223328 6.51377821
127 1 0.0 4.93544817 12.822670937 6.51377821
128 1 0.0 4.93544817 21.371116638 6.51377821
129 1 0.0 4.93544817 29.919565201 6.51377821
130 1 0.0 4.93544817 38.468009949 6.51377821
131 1 0.0 14.806344986 4.274223328 6.51377821
132 1 0.0 14.806344986 12.822670937 6.51377821
133 1 0.0 14.806344986 21.371116638 6.51377821
134 1 0.0 14.806344986 29.919565201 6.51377821
135 1 0.0 14.806344986 38.468009949 6.51377821
136 1 0.0 24.677240372 4.274223328 6.51377821
137 1 0.0 24.677240372 12.822670937 6.51377821
138 1 0.0 24.677240372 21.371116638 6.51377821
139 1 0.0 24.677240372 29.919565201 6.51377821
140 1 0.0 24.677240372 38.468009949 6.51377821
141 1 0.0 34.548137665 4.274223328 6.51377821
142 1 0.0 34.548137665 12.822670937 6.51377821
143 1 0.0 34.548137665 21.371116638 6.51377821
144 1 0.0 34.548137665 29.919565201 6.51377821
145 1 0.0 34.548137665 38.468009949 6.51377821
146 1 0.0 44.419033051 4.274223328 6.51377821
147 1 0.0 44.419033051 12.822670937 6.51377821
148 1 0.0 44.419033051 21.371116638 6.51377821
149 1 0.0 44.419033051 29.919565201 6.51377821
150 1 0.0 44.419033051 38.468009949 6.51377821
151 1 0.0 7.403172493 0.0 6.51377821
152 1 0.0 7.403172493 8.548446655 6.51377821
153 1 0.0 7.403172493 17.096893311 6.51377821
154 1 0.0 7.403172493 25.645341873 6.51377821
155 1 0.0 7.403172493 34.193786621 6.51377821
156 1 0.0 17.274068832 0.0 6.51377821
157 1 0.0 17.274068832 8.548446655 6.51377821
158 1 0.0 17.274068832 17.096893311 6.51377821
159 1 0.0 17.274068832 25.645341873 6.51377821
160 1 0.0 17.274068832 34.193786621 6.51377821
161 1 0.0 27.144964218 0.0 6.51377821
162 1 0.0 27.144964218 8.548446655 6.51377821
163 1 0.0 27.144964218 17.096893311 6.51377821
164 1 0.0 27.144964218 25.645341873 6.51377821
165 1 0.0 27.144964218 34.193786621 6.51377821
166 1 0.0 37.015861511 0.0 6.51377821
167 1 0.0 37.015861511 8.548446655 6.51377821
168 1 0.0 37.015861511 17.096893311 6.51377821
169 1 0.0 37.015861511 25.645341873 6.51377821
170 1 0.0 37.015861511 34.193786621 6.51377821
171 1 0.0 46.886760712 0.0 6.51377821
172 1 0.0 46.886760712 8.548446655 6.51377821
173 1 0.0 46.886760712 17.096893311 6.51377821
174 1 0.0 46.886760712 25.645341873 6.51377821
175 1 0.0 46.886760712 34.193786621 6.51377821
176 1 0.0 7.403172493 4.274223328 6.51377821
177 1 0.0 7.403172493 12.822670937 6.51377821
178 1 0.0 7.403172493 21.371116638 6.51377821
179 1 0.0 7.403172493 29.919565201 6.51377821
180 1 0.0 7.403172493 38.468009949 6.51377821
181 1 0.0 17.274068832 4.274223328 6.51377821
182 1 0.0 17.274068832 12.822670937 6.51377821
183 1 0.0 17.274068832 21.371116638 6.51377821
184 1 0.0 17.274068832 29.919565201 6.51377821
185 1 0.0 17.274068832 38.468009949 6.51377821
186 1 0.0 27.144964218 4.274223328 6.51377821
187 1 0.0 27.144964218 12.822670937 6.51377821
188 1 0.0 27.144964218 21.371116638 6.51377821
189 1 0.0 27.144964218 29.919565201 6.51377821
190 1 0.0 27.144964218 38.468009949 6.51377821
191 1 0.0 37.015861511 4.274223328 6.51377821
192 1 0.0 37.015861511 12.822670937 6.51377821
193 1 0.0 37.015861511 21.371116638 6.51377821
194 1 0.0 37.015861511 29.919565201 6.51377821
195 1 0.0 37.015861511 38.468009949 6.51377821
196 1 0.0 46.886760712 4.274223328 6.51377821
197 1 0.0 46.886760712 12.822670937 6.51377821
198 1 0.0 46.886760712 21.371116638 6.51377821
199 1 0.0 46.886760712 29.919565201 6.51377821
200 1 0.0 46.886760712 38.468009949 6.51377821
201 1 0.0 1.233862042 2.137111425 6.51377821
202 1 0.0 1.233862042 10.685558319 6.51377821
203 1 0.0 1.233862042 19.234004974 6.51377821
204 1 0.0 1.233862042 27.782453537 6.51377821
205 1 0.0 1.233862042 36.330898285 6.51377821
206 1 0.0 11.104758263 2.137111425 6.51377821
207 1 0.0 11.104758263 10.685558319 6.51377821
208 1 0.0 11.104758263 19.234004974 6.51377821
209 1 0.0 11.104758263 27.782453537 6.51377821
210 1 0.0 11.104758263 36.330898285 6.51377821
211 1 0.0 20.975654602 2.137111425 6.51377821
212 1 0.0 20.975654602 10.685558319 6.51377821
213 1 0.0 20.975654602 19.234004974 6.51377821
214 1 0.0 20.975654602 27.782453537 6.51377821
215 1 0.0 20.975654602 36.330898285 6.51377821
216 1 0.0 30.846549988 2.137111425 6.51377821
217 1 0.0 30.846549988 10.685558319 6.51377821
218 1 0.0 30.846549988 19.234004974 6.51377821
219 1 0.0 30.846549988 27.782453537 6.51377821
220 1 0.0 30.846549988 36.330898285 6.51377821
221 1 0.0 40.717445374 2.137111425 6.51377821
222 1 0.0 40.717445374 10.685558319 6.51377821
223 1 0.0 40.717445374 19.234004974 6.51377821
224 1 0.0 40.717445374 27.782453537 6.51377821
225 1 0.0 40.717445374 36.330898285 6.51377821
226 1 0.0 1.233862042 6.411335468 6.51377821
227 1 0.0 1.233862042 14.9597826 6.51377821
228 1 0.0 1.233862042 23.508228302 6.51377821
229 1 0.0 1.233862042 32.056674957 6.51377821
230 1 0.0 1.233862042 40.605125427 6.51377821
231 1 0.0 11.104758263 6.411335468 6.51377821
232 1 0.0 11.104758263 14.9597826 6.51377821
233 1 0.0 11.104758263 23.508228302 6.51377821
234 1 0.0 11.104758263 32.056674957 6.51377821
235 1 0.0 11.104758263 40.605125427 6.51377821
236 1 0.0 20.975654602 6.411335468 6.51377821
237 1 0.0 20.975654602 14.9597826 6.51377821
238 1 0.0 20.975654602 23.508228302 6.51377821
239 1 0.0 20.975654602 32.056674957 6.51377821
240 1 0.0 20.975654602 40.605125427 6.51377821
241 1 0.0 30.846549988 6.411335468 6.51377821
242 1 0.0 30.846549988 14.9597826 6.51377821
243 1 0.0 30.846549988 23.508228302 6.51377821
244 1 0.0 30.846549988 32.056674957 6.51377821
245 1 0.0 30.846549988 40.605125427 6.51377821
246 1 0.0 40.717445374 6.411335468 6.51377821
247 1 0.0 40.717445374 14.9597826 6.51377821
248 1 0.0 40.717445374 23.508228302 6.51377821
249 1 0.0 40.717445374 32.056674957 6.51377821
250 1 0.0 40.717445374 40.605125427 6.51377821
251 1 0.0 3.701586246 2.137111425 6.51377821
252 1 0.0 3.701586246 10.685558319 6.51377821
253 1 0.0 3.701586246 19.234004974 6.51377821
254 1 0.0 3.701586246 27.782453537 6.51377821
255 1 0.0 3.701586246 36.330898285 6.51377821
256 1 0.0 13.572482109 2.137111425 6.51377821
257 1 0.0 13.572482109 10.685558319 6.51377821
258 1 0.0 13.572482109 19.234004974 6.51377821
259 1 0.0 13.572482109 27.782453537 6.51377821
260 1 0.0 13.572482109 36.330898285 6.51377821
261 1 0.0 23.443380356 2.137111425 6.51377821
262 1 0.0 23.443380356 10.685558319 6.51377821
263 1 0.0 23.443380356 19.234004974 6.51377821
264 1 0.0 23.443380356 27.782453537 6.51377821
265 1 0.0 23.443380356 36.330898285 6.51377821
266 1 0.0 33.314273834 2.137111425 6.51377821
267 1 0.0 33.314273834 10.685558319 6.51377821
268 1 0.0 33.314273834 19.234004974 6.51377821
269 1 0.0 33.314273834 27.782453537 6.51377821
270 1 0.0 33.314273834 36.330898285 6.51377821
271 1 0.0 43.18516922 2.137111425 6.51377821
272 1 0.0 43.18516922 10.685558319 6.51377821
273 1 0.0 43.18516922 19.234004974 6.51377821
274 1 0.0 43.18516922 27.782453537 6.51377821
275 1 0.0 43.18516922 36.330898285 6.51377821
276 1 0.0 3.701586246 6.411335468 6.51377821
277 1 0.0 3.701586246 14.9597826 6.51377821
278 1 0.0 3.701586246 23.508228302 6.51377821
279 1 0.0 3.701586246 32.056674957 6.51377821
280 1 0.0 3.701586246 40.605125427 6.51377821
281 1 0.0 13.572482109 6.411335468 6.51377821
282 1 0.0 13.572482109 14.9597826 6.51377821
283 1 0.0 13.572482109 23.508228302 6.51377821
284 1 0.0 13.572482109 32.056674957 6.51377821
285 1 0.0 13.572482109 40.605125427 6.51377821
286 1 0.0 23.443380356 6.411335468 6.51377821
287 1 0.0 23.443380356 14.9597826 6.51377821
288 1 0.0 23.443380356 23.508228302 6.51377821
289 1 0.0 23.443380356 32.056674957 6.51377821
290 1 0.0 23.443380356 40.605125427 6.51377821
291 1 0.0 33.314273834 6.411335468 6.51377821
292 1 0.0 33.314273834 14.9597826 6.51377821
293 1 0.0 33.314273834 23.508228302 6.51377821
294 1 0.0 33.314273834 32.056674957 6.51377821
295 1 0.0 33.314273834 40.605125427 6.51377821
296 1 0.0 43.18516922 6.411335468 6.51377821
297 1 0.0 43.18516922 14.9597826 6.51377821
298 1 0.0 43.18516922 23.508228302 6.51377821
299 1 0.0 43.18516922 32.056674957 6.51377821
300 1 0.0 43.18516922 40.605125427 6.51377821
301 1 0.0 6.169310093 2.137111425 6.51377821
302 1 0.0 6.169310093 10.685558319 6.51377821
303 1 0.0 6.169310093 19.234004974 6.51377821
304 1 0.0 6.169310093 27.782453537 6.51377821
305 1 0.0 6.169310093 36.330898285 6.51377821
306 1 0.0 16.040205002 2.137111425 6.51377821
307 1 0.0 16.040205002 10.685558319 6.51377821
308 1 0.0 16.040205002 19.234004974 6.51377821
309 1 0.0 16.040205002 27.782453537 6.51377821
310 1 0.0 16.040205002 36.330898285 6.51377821
311 1 0.0 25.911100388 2.137111425 6.51377821
312 1 0.0 25.911100388 10.685558319 6.51377821
313 1 0.0 25.911100388 19.234004974 6.51377821
314 1 0.0 25.911100388 27.782453537 6.51377821
315 1 0.0 25.911100388 36.330898285 6.51377821
316 1 0.0 35.782001495 2.137111425 6.51377821
317 1 0.0 35.782001495 10.685558319 6.51377821
318 1 0.0 35.782001495 19.234004974 6.51377821
319 1 0.0 35.782001495 27.782453537 6.51377821
320 1 0.0 35.782001495 36.330898285 6.51377821
321 1 0.0 45.652896881 2.137111425 6.51377821
322 1 0.0 45.652896881 10.685558319 6.51377821
323 1 0.0 45.652896881 19.234004974 6.51377821
324 1 0.0 45.652896881 27.782453537 6.51377821
325 1 0.0 45.652896881 36.330898285 6.51377821
326 1 0.0 6.169310093 6.411335468 6.51377821
327 1 0.0 6.169310093 14.9597826 6.51377821
328 1 0.0 6.169310093 23.508228302 6.51377821
329 1 0.0 6.169310093 32.056674957 6.51377821
330 1 0.0 6.169310093 40.605125427 6.51377821
331 1 0.0 16.040205002 6.411335468 6.51377821
332 1 0.0 16.040205002 14.9597826 6.51377821
333 1 0.0 16.040205002 23.508228302 6.51377821
334 1 0.0 16.040205002 32.056674957 6.51377821
335 1 0.0 16.040205002 40.605125427 6.51377821
336 1 0.0 25.911100388 6.411335468 6.51377821
337 1 0.0 25.911100388 14.9597826 6.51377821
338 1 0.0 25.911100388 23.508228302 6.51377821
339 1 0.0 25.911100388 32.056674957 6.51377821
340 1 0.0 25.911100388 40.605125427 6.51377821
341 1 0.0 35.782001495 6.411335468 6.51377821
342 1 0.0 35.782001495 14.9597826 6.51377821
343 1 0.0 35.782001495 23.508228302 6.51377821
344 1 0.0 35.782001495 32.056674957 6.51377821
345 1 0.0 35.782001495 40.605125427 6.51377821
346 1 0.0 45.652896881 6.411335468 6.51377821
347 1 0.0 45.652896881 14.9597826 6.51377821
348 1 0.0 45.652896881 23.508228302 6.51377821
349 1 0.0 45.652896881 32.056674957 6.51377821
350 1 0.0 45.652896881 40.605125427 6.51377821
351 1 0.0 8.637034416 2.137111425 6.51377821
352 1 0.0 8.637034416 10.685558319 6.51377821
353 1 0.0 8.637034416 19.234004974 6.51377821
354 1 0.0 8.637034416 27.782453537 6.51377821
355 1 0.0 8.637034416 36.330898285 6.51377821
356 1 0.0 18.507930756 2.137111425 6.51377821
357 1 0.0 18.507930756 10.685558319 6.51377821
358 1 0.0 18.507930756 19.234004974 6.51377821
359 1 0.0 18.507930756 27.782453537 6.51377821
360 1 0.0 18.507930756 36.330898285 6.51377821
361 1 0.0 28.378826141 2.137111425 6.51377821
362 1 0.0 28.378826141 10.685558319 6.51377821
363 1 0.0 28.378826141 19.234004974 6.51377821
364 1 0.0 28.378826141 27.782453537 6.51377821
365 1 0.0 28.378826141 36.330898285 6.51377821
366 1 0.0 38.249725342 2.137111425 6.51377821
367 1 0.0 38.249725342 10.685558319 6.51377821
368 1 0.0 38.249725342 19.234004974 6.51377821
369 1 0.0 38.249725342 27.782453537 6.51377821
370 1 0.0 38.249725342 36.330898285 6.51377821
371 1 0.0 48.120620728 2.137111425 6.51377821
372 1 0.0 48.120620728 10.685558319 6.51377821
373 1 0.0 48.120620728 19.234004974 6.51377821
374 1 0.0 48.120620728 27.782453537 6.51377821
375 1 0.0 48.120620728 36.330898285 6.51377821
376 1 0.0 8.637034416 6.411335468 6.51377821
377 1 0.0 8.637034416 14.9597826 6.51377821
378 1 0.0 8.637034416 23.508228302 6.51377821
379 1 0.0 8.637034416 32.056674957 6.51377821
380 1 0.0 8.637034416 40.605125427 6.51377821
381 1 0.0 18.507930756 6.411335468 6.51377821
382 1 0.0 18.507930756 14.9597826 6.51377821
383 1 0.0 18.507930756 23.508228302 6.51377821
384 1 0.0 18.507930756 32.056674957 6.51377821
385 1 0.0 18.507930756 40.605125427 6.51377821
386 1 0.0 28.378826141 6.411335468 6.51377821
387 1 0.0 28.378826141 14.9597826 6.51377821
388 1 0.0 28.378826141 23.508228302 6.51377821
389 1 0.0 28.378826141 32.056674957 6.51377821
390 1 0.0 28.378826141 40.605125427 6.51377821
391 1 0.0 38.249725342 6.411335468 6.51377821
392 1 0.0 38.249725342 14.9597826 6.51377821
393 1 0.0 38.249725342 23.508228302 6.51377821
394 1 0.0 38.249725342 32.056674957 6.51377821
395 1 0.0 38.249725342 40.605125427 6.51377821
396 1 0.0 48.120620728 6.411335468 6.51377821
397 1 0.0 48.120620728 14.9597826 6.51377821
398 1 0.0 48.120620728 23.508228302 6.51377821
399 1 0.0 48.120620728 32.056674957 6.51377821
400 1 0.0 48.120620728 40.605125427 6.51377821
401 1 0.0 0.0 1.424741149 6.51377821
402 1 0.0 0.0 9.973187447 6.51377821
403 1 0.0 0.0 18.521635056 6.51377821
404 1 0.0 0.0 27.070083618 6.51377821
405 1 0.0 0.0 35.618530273 6.51377821
406 1 0.0 9.870896339 1.424741149 6.51377821
407 1 0.0 9.870896339 9.973187447 6.51377821
408 1 0.0 9.870896339 18.521635056 6.51377821
409 1 0.0 9.870896339 27.070083618 6.51377821
410 1 0.0 9.870896339 35.618530273 6.51377821
411 1 0.0 19.741792679 1.424741149 6.51377821
412 1 0.0 19.741792679 9.973187447 6.51377821
413 1 0.0 19.741792679 18.521635056 6.51377821
414 1 0.0 19.741792679 27.070083618 6.51377821
415 1 0.0 19.741792679 35.618530273 6.51377821
416 1 0.0 29.612689972 1.424741149 6.51377821
417 1 0.0 29.612689972 9.973187447 6.51377821
418 1 0.0 29.612689972 18.521635056 6.51377821
419 1 0.0 29.612689972 27.070083618 6.51377821
420 1 0.0 29.612689972 35.618530273 6.51377821
421 1 0.0 39.483585358 1.424741149 6.51377821
422 1 0.0 39.483585358 9.973187447 6.51377821
423 1 0.0 39.483585358 18.521635056 6.51377821
424 1 0.0 39.483585358 27.070083618 6.51377821
425 1 0.0 39.483585358 35.618530273 6.51377821
426 1 0.0 0.0 5.698964596 6.51377821
427 1 0.0 0.0 14.247411728 6.51377821
428 1 0.0 0.0 22.795858383 6.51377821
429 1 0.0 0.0 31.344305038 6.51377821
430 1 0.0 0.0 39.892749786 6.51377821
431 1 0.0 9.870896339 5.698964596 6.51377821
432 1 0.0 9.870896339 14.247411728 6.51377821
433 1 0.0 9.870896339 22.795858383 6.51377821
434 1 0.0 9.870896339 31.344305038 6.51377821
435 1 0.0 9.870896339 39.892749786 6.51377821
436 1 0.0 19.741792679 5.698964596 6.51377821
437 1 0.0 19.741792679 14.247411728 6.51377821
438 1 0.0 19.741792679 22.795858383 6.51377821
439 1 0.0 19.741792679 31.344305038 6.51377821
440 1 0.0 19.741792679 39.892749786 6.51377821
441 1 0.0 29.612689972 5.698964596 6.51377821
442 1 0.0 29.612689972 14.247411728 6.51377821
443 1 0.0 29.612689972 22.795858383 6.51377821
444 1 0.0 29.612689972 31.344305038 6.51377821
445 1 0.0 29.612689972 39.892749786 6.51377821
446 1 0.0 39.483585358 5.698964596 6.51377821
447 1 0.0 39.483585358 14.247411728 6.51377821
448 1 0.0 39.483585358 22.795858383 6.51377821
449 1 0.0 39.483585358 31.344305038 6.51377821
450 1 0.0 39.483585358 39.892749786 6.51377821
451 1 0.0 2.467724085 1.424741149 6.51377821
452 1 0.0 2.467724085 9.973187447 6.51377821
453 1 0.0 2.467724085 18.521635056 6.51377821
454 1 0.0 2.467724085 27.070083618 6.51377821
455 1 0.0 2.467724085 35.618530273 6.51377821
456 1 0.0 12.338620186 1.424741149 6.51377821
457 1 0.0 12.338620186 9.973187447 6.51377821
458 1 0.0 12.338620186 18.521635056 6.51377821
459 1 0.0 12.338620186 27.070083618 6.51377821
460 1 0.0 12.338620186 35.618530273 6.51377821
461 1 0.0 22.209516525 1.424741149 6.51377821
462 1 0.0 22.209516525 9.973187447 6.51377821
463 1 0.0 22.209516525 18.521635056 6.51377821
464 1 0.0 22.209516525 27.070083618 6.51377821
465 1 0.0 22.209516525 35.618530273 6.51377821
466 1 0.0 32.080413818 1.424741149 6.51377821
467 1 0.0 32.080413818 9.973187447 6.51377821
468 1 0.0 32.080413818 18.521635056 6.51377821
469 1 0.0 32.080413818 27.070083618 6.51377821
470 1 0.0 32.080413818 35.618530273 6.51377821
471 1 0.0 41.951309204 1.424741149 6.51377821
472 1 0.0 41.951309204 9.973187447 6.51377821
473 1 0.0 41.951309204 18.521635056 6.51377821
474 1 0.0 41.951309204 27.070083618 6.51377821
475 1 0.0 41.951309204 35.618530273 6.51377821
476 1 0.0 2.467724085 5.698964596 6.51377821
477 1 0.0 2.467724085 14.247411728 6.51377821
478 1 0.0 2.467724085 22.795858383 6.51377821
479 1 0.0 2.467724085 31.344305038 6.51377821
480 1 0.0 2.467724085 39.892749786 6.51377821
481 1 0.0 12.338620186 5.698964596 6.51377821
482 1 0.0 12.338620186 14.247411728 6.51377821
483 1 0.0 12.338620186 22.795858383 6.51377821
484 1 0.0 12.338620186 31.344305038 6.51377821
485 1 0.0 12.338620186 39.892749786 6.51377821
486 1 0.0 22.209516525 5.698964596 6.51377821
487 1 0.0 22.209516525 14.247411728 6.51377821
488 1 0.0 22.209516525 22.795858383 6.51377821
489 1 0.0 22.209516525 31.344305038 6.51377821
490 1 0.0 22.209516525 39.892749786 6.51377821
491 1 0.0 32.080413818 5.698964596 6.51377821
492 1 0.0 32.080413818 14.247411728 6.51377821
493 1 0.0 32.080413818 22.795858383 6.51377821
494 1 0.0 32.080413818 31.344305038 6.51377821
495 1 0.0 32.080413818 39.892749786 6.51377821
496 1 0.0 41.951309204 5.698964596 6.51377821
497 1 0.0 41.951309204 14.247411728 6.51377821
498 1 0.0 41.951309204 22.795858383 6.51377821
499 1 0.0 41.951309204 31.344305038 6.51377821
500 1 0.0 41.951309204 39.892749786 6.51377821
501 1 0.0 4.93544817 1.424741149 6.51377821
502 1 0.0 4.93544817 9.973187447 6.51377821
503 1 0.0 4.93544817 18.521635056 6.51377821
504 1 0.0 4.93544817 27.070083618 6.51377821
505 1 0.0 4.93544817 35.618530273 6.51377821
506 1 0.0 14.806344986 1.424741149 6.51377821
507 1 0.0 14.806344986 9.973187447 6.51377821
508 1 0.0 14.806344986 18.521635056 6.51377821
509 1 0.0 14.806344986 27.070083618 6.51377821
510 1 0.0 14.806344986 35.618530273 6.51377821
511 1 0.0 24.677240372 1.424741149 6.51377821
512 1 0.0 24.677240372 9.973187447 6.51377821
513 1 0.0 24.677240372 18.521635056 6.51377821
514 1 0.0 24.677240372 27.070083618 6.51377821
515 1 0.0 24.677240372 35.618530273 6.51377821
516 1 0.0 34.548137665 1.424741149 6.51377821
517 1 0.0 34.548137665 9.973187447 6.51377821
518 1 0.0 34.548137665 18.521635056 6.51377821
519 1 0.0 34.548137665 27.070083618 6.51377821
520 1 0.0 34.548137665 35.618530273 6.51377821
521 1 0.0 44.419033051 1.424741149 6.51377821
522 1 0.0 44.419033051 9.973187447 6.51377821
523 1 0.0 44.419033051 18.521635056 6.51377821
524 1 0.0 44.419033051 27.070083618 6.51377821
525 1 0.0 44.419033051 35.618530273 6.51377821
526 1 0.0 4.93544817 5.698964596 6.51377821
527 1 0.0 4.93544817 14.247411728 6.51377821
528 1 0.0 4.93544817 22.795858383 6.51377821
529 1 0.0 4.93544817 31.344305038 6.51377821
530 1 0.0 4.93544817 39.892749786 6.51377821
531 1 0.0 14.806344986 5.698964596 6.51377821
532 1 0.0 14.806344986 14.247411728 6.51377821
533 1 0.0 14.806344986 22.795858383 6.51377821
534 1 0.0 14.806344986 31.344305038 6.51377821
535 1 0.0 14.806344986 39.892749786 6.51377821
536 1 0.0 24.677240372 5.698964596 6.51377821
537 1 0.0 24.677240372 14.247411728 6.51377821
538 1 0.0 24.677240372 22.795858383 6.51377821
539 1 0.0 24.677240372 31.344305038 6.51377821
540 1 0.0 24.677240372 39.892749786 6.51377821
541 1 0.0 34.548137665 5.698964596 6.51377821
542 1 0.0 34.548137665 14.247411728 6.51377821
543 1 0.0 34.548137665 22.795858383 6.51377821
544 1 0.0 34.548137665 31.344305038 6.51377821
545 1 0.0 34.548137665 39.892749786 6.51377821
546 1 0.0 44.419033051 5.698964596 6.51377821
547 1 0.0 44.419033051 14.247411728 6.51377821
548 1 0.0 44.419033051 22.795858383 6.51377821
549 1 0.0 44.419033051 31.344305038 6.51377821
550 1 0.0 44.419033051 39.892749786 6.51377821
551 1 0.0 7.403172493 1.424741149 6.51377821
552 1 0.0 7.403172493 9.973187447 6.51377821
553 1 0.0 7.403172493 18.521635056 6.51377821
554 1 0.0 7.403172493 27.070083618 6.51377821
555 1 0.0 7.403172493 35.618530273 6.51377821
556 1 0.0 17.274068832 1.424741149 6.51377821
557 1 0.0 17.274068832 9.973187447 6.51377821
558 1 0.0 17.274068832 18.521635056 6.51377821
559 1 0.0 17.274068832 27.070083618 6.51377821
560 1 0.0 17.274068832 35.618530273 6.51377821
561 1 0.0 27.144964218 1.424741149 6.51377821
562 1 0.0 27.144964218 9.973187447 6.51377821
563 1 0.0 27.144964218 18.521635056 6.51377821
564 1 0.0 27.144964218 27.070083618 6.51377821
565 1 0.0 27.144964218 35.618530273 6.51377821
566 1 0.0 37.015861511 1.424741149 6.51377821
567 1 0.0 37.015861511 9.973187447 6.51377821
568 1 0.0 37.015861511 18.521635056 6.51377821
569 1 0.0 37.015861511 27.070083618 6.51377821
570 1 0.0 37.015861511 35.618530273 6.51377821
571 1 0.0 46.886760712 1.424741149 6.51377821
572 1 0.0 46.886760712 9.973187447 6.51377821
573 1 0.0 46.886760712 18.521635056 6.51377821
574 1 0.0 46.886760712 27.070083618 6.51377821
575 1 0.0 46.886760712 35.618530273 6.51377821
576 1 0.0 7.403172493 5.698964596 6.51377821
577 1 0.0 7.403172493 14.247411728 6.51377821
578 1 0.0 7.403172493 22.795858383 6.51377821
579 1 0.0 7.403172493 31.344305038 6.51377821
580 1 0.0 7.403172493 39.892749786 6.51377821
581 1 0.0 17.274068832 5.698964596 6.51377821
582 1 0.0 17.274068832 14.247411728 6.51377821
583 1 0.0 17.274068832 22.795858383 6.51377821
584 1 0.0 17.274068832 31.344305038 6.51377821
585 1 0.0 17.274068832 39.892749786 6.51377821
586 1 0.0 27.144964218 5.698964596 6.51377821
587 1 0.0 27.144964218 14.247411728 6.51377821
588 1 0.0 27.144964218 22.795858383 6.51377821
589 1 0.0 27.144964218 31.344305038 6.51377821
590 1 0.0 27.144964218 39.892749786 6.51377821
591 1 0.0 37.015861511 5.698964596 6.51377821
592 1 0.0 37.015861511 14.247411728 6.51377821
593 1 0.0 37.015861511 22.795858383 6.51377821
594 1 0.0 37.015861511 31.344305038 6.51377821
595 1 0.0 37.015861511 39.892749786 6.51377821
596 1 0.0 46.886760712 5.698964596 6.51377821
597 1 0.0 46.886760712 14.247411728 6.51377821
598 1 0.0 46.886760712 22.795858383 6.51377821
599 1 0.0 46.886760712 31.344305038 6.51377821
600 1 0.0 46.886760712 39.892749786 6.51377821
601 1 0.0 1.233862042 3.561852455 6.51377821
602 1 0.0 1.233862042 12.11029911 6.51377821
603 1 0.0 1.233862042 20.658746719 6.51377821
604 1 0.0 1.233862042 29.207193375 6.51377821
605 1 0.0 1.233862042 37.755638123 6.51377821
606 1 0.0 11.104758263 3.561852455 6.51377821
607 1 0.0 11.104758263 12.11029911 6.51377821
608 1 0.0 11.104758263 20.658746719 6.51377821
609 1 0.0 11.104758263 29.207193375 6.51377821
610 1 0.0 11.104758263 37.755638123 6.51377821
611 1 0.0 20.975654602 3.561852455 6.51377821
612 1 0.0 20.975654602 12.11029911 6.51377821
613 1 0.0 20.975654602 20.658746719 6.51377821
614 1 0.0 20.975654602 29.207193375 6.51377821
615 1 0.0 20.975654602 37.755638123 6.51377821
616 1 0.0 30.846549988 3.561852455 6.51377821
617 1 0.0 30.846549988 12.11029911 6.51377821
618 1 0.0 30.846549988 20.658746719 6.51377821
619 1 0.0 30.846549988 29.207193375 6.51377821
620 1 0.0 30.846549988 37.755638123 6.51377821
621 1 0.0 40.717445374 3.561852455 6.51377821
622 1 0.0 40.717445374 12.11029911 6.51377821
623 1 0.0 40.717445374 20.658746719 6.51377821
624 1 0.0 40.717445374 29.207193375 6.51377821
625 1 0.0 40.717445374 37.755638123 6.51377821
626 1 0.0 1.233862042 7.836075783 6.51377821
627 1 0.0 1.233862042 16.384521484 6.51377821
628 1 0.0 1.233862042 24.93296814 6.51377821
629 1 0.0 1.233862042 33.48141861 6.51377821
630 1 0.0 1.233862042 42.029865265 6.51377821
631 1 0.0 11.104758263 7.836075783 6.51377821
632 1 0.0 11.104758263 16.384521484 6.51377821
633 1 0.0 11.104758263 24.93296814 6.51377821
634 1 0.0 11.104758263 33.48141861 6.51377821
635 1 0.0 11.104758263 42.029865265 6.51377821
636 1 0.0 20.975654602 7.836075783 6.51377821
637 1 0.0 20.975654602 16.384521484 6.51377821
638 1 0.0 20.975654602 24.93296814 6.51377821