#Input file for lammps
 
2808 atoms
5 atom types
 
0.0 30.5042 xlo xhi
0.0 30.5042 ylo yhi
0.0 44.8022 zlo zhi
 
Masses
 
1 28.06
2 1.008
3 12
4 14
5 6.941
 
Atoms
 
      1 1 0      26.9255      19.1185     0.111275
      2 1 0      28.8999      17.5508     0.174755
      3 1 0      27.3943       21.393     0.532315
      4 1 0      27.9842      15.3919     0.532155
      5 1 0      7.06849      19.2463      1.61799
      6 1 0      0.51983      21.8222      1.65149
      7 1 0      9.70741      22.3491      1.93206
      8 1 0      6.35503      25.2726      1.74699
      9 1 0       13.679      26.2383       2.3938
     10 1 0      12.0333      9.56332      2.01588
     11 1 0      17.2449      1.08107     0.953135
     12 1 0      19.3403      1.19044     0.592465
     13 1 0      1.29873      19.5945      1.12393
     14 1 0      5.33464      20.4173      1.53381
     15 1 0      12.5903      28.0268      1.21548
     16 1 0      13.4987      29.9424      1.46247
     17 1 0      16.2916      9.39218      1.44148
     18 1 0      8.93924      26.9853      2.41244
     19 1 0      13.6077      6.47472      1.38522
     20 1 0      29.4785      25.1063     0.486525
     21 1 0      11.4835      19.2486      1.21473
     22 1 0      13.5572       11.314      1.32706
     23 1 0      22.1784       5.2211      1.40789
     24 1 0      21.8716      28.4676      1.31153
     25 1 0      22.5119      9.21453      1.25341
     26 1 0      11.6896      1.26222       1.7405
     27 1 0      23.7583      19.3908      2.47511
     28 1 0      6.40989      15.5579      2.92419
     29 1 0      9.34405      19.9407       2.1384
     30 1 0      18.7003      19.6735      2.08514
     31 1 0      15.9995      3.11989      1.26069
     32 1 0       2.4574       24.547      2.02298
     33 1 0      27.6027      3.47367      1.28009
     34 1 0      19.8212      18.1287      3.04298
     35 1 0      8.22492      8.88676      1.54947
     36 1 0      13.3422      15.4243      1.44285
     37 1 0      9.41029      4.64916      1.24128
     38 1 0      3.65112      28.2067      2.58634
     39 1 0      25.6072      7.02739      1.27228
     40 1 0      29.0776      5.42823      1.68962
     41 1 0      23.4901      21.2722      1.51632
     42 1 0       25.521       11.056     0.882535
     43 1 0      11.9126      22.9038      1.46524
     44 1 0       30.438      18.1632       1.9116
     45 1 0      1.93776      26.4936      2.76269
     46 1 0      25.8345      18.3245      1.91518
     47 1 0      9.89303      10.5582      2.02813
     48 1 0      0.98429      15.8991      2.15591
     49 1 0      16.1096      25.5447      2.59783
     50 1 0      7.70973      1.35498      1.96643
     51 1 0      29.6368      29.0295      1.70696
     52 1 0      8.84307      14.9462       2.4695
     53 1 0      30.0064      12.1025      1.41318
     54 1 0      20.4855      12.5829      1.73259
     55 1 0      25.5928      3.32137      2.00244
     56 1 0       24.132      15.0508      1.74572
     57 1 0      3.35111      19.0619      2.05692
     58 1 0      17.4935      4.64078      1.04634
     59 1 0      21.2283      7.37267      2.03652
     60 1 0      26.1979      16.1271      2.09728
     61 1 0      8.37794      24.2142      2.69048
     62 1 0      15.5504      7.44016      2.60019
     63 1 0       10.267      12.9344      1.81161
     64 1 0      18.4859      9.52082      1.68006
     65 1 0      11.8062      7.71047     0.955275
     66 1 0      17.0848      14.7037      2.02117
     67 1 0      25.2784      29.8366      1.90992
     68 1 0      15.3283      21.2766      2.07458
     69 1 0        29.91       14.215      1.33933
     70 1 0       0.9126      23.5531     0.483495
     71 1 0      30.2371      27.0318      1.88125
     72 1 0      19.7091      27.4261      1.84967
     73 1 0       24.529      9.15137       1.9744
     74 1 0      24.3025      5.29915      2.20908
     75 1 0       6.5283      17.8727      3.51171
     76 1 0      9.70091      6.93725      1.87342
     77 1 0      20.7856      30.2043      1.92199
     78 1 0      7.80966      3.72948      2.51553
     79 1 0      12.3805      13.2897       2.0898
     80 1 0      24.3942      1.27213      2.30437
     81 1 0      6.00721      27.4621      2.42882
     82 1 0      28.7434      21.7757      2.12688
     83 1 0      25.7071      24.6154      1.83491
     84 1 0      19.6728      21.8499      2.18219
     85 1 0      0.63553      2.38446      1.95991
     86 1 0      4.12994      11.5045      1.68975
     87 1 0       5.5999      4.80575       2.5456
     88 1 0      12.9654      21.0241      2.11759
     89 1 0      11.9149      17.3791      2.18764
     90 1 0      28.1636      24.2189      1.96524
     91 1 0      15.4167      11.1138      2.49043
     92 1 0      2.89051      13.0895      2.28836
     93 1 0      22.2849      11.3907      2.34639
     94 1 0      19.1152      3.09014      2.11808
     95 1 0       9.8423      0.47801      2.50278
     96 1 0      24.2189      12.7067       2.2357
     97 1 0      21.9744      17.7897      2.08284
     98 1 0      3.25109      19.3497      4.18269
     99 1 0      5.51006      22.0866      3.29908
    100 1 0      18.5277      23.5574      2.38103
    101 1 0      3.17853      30.1611      1.94873
    102 1 0      27.7906       11.038      2.02725
    103 1 0      27.3695      6.93239      2.49778
    104 1 0      15.1022      15.8501      2.57064
    105 1 0      16.3891      19.6029      2.77032
    106 1 0      16.2398      23.2104      3.26593
    107 1 0      23.5248        28.26      2.69809
    108 1 0       15.048      29.7358      3.32512
    109 1 0      21.7852      22.4547      2.68382
    110 1 0      4.00959      15.1758       2.7628
    111 1 0       22.307      1.43527      2.77463
    112 1 0      18.9926      15.8647      2.96245
    113 1 0      13.5533      1.32533        3.314
    114 1 0      0.84579       0.0258      2.58486
    115 1 0      20.6954       14.589      2.91411
    116 1 0      17.0768      30.3636      2.92619
    117 1 0      21.3466      3.71128      2.66361
    118 1 0       11.278      3.59754      2.33579
    119 1 0      25.5948      22.5174      1.80486
    120 1 0      4.60837      0.68703      3.67638
    121 1 0      14.6061      3.23427      2.99474
    122 1 0      2.39333      5.89761      2.77563
    123 1 0      6.80216      8.84154      3.08251
    124 1 0      4.70207      24.2621      2.82692
    125 1 0      0.95432      12.3029       3.0745
    126 1 0      18.8791      11.4369      2.71921
    127 1 0      19.8689      25.5718      2.85487
    128 1 0      16.9616      12.7876      2.99323
    129 1 0      11.1074      27.5074      3.10149
    130 1 0       23.923      25.9179      3.19184
    131 1 0      0.28188      6.22557      3.12574
    132 1 0      13.1079      5.03838      2.86384
    133 1 0       22.601      16.0354      3.15415
    134 1 0      3.19767      16.6618      1.44186
    135 1 0      28.9936      2.87505      2.85399
    136 1 0      0.22891      22.2142      4.06918
    137 1 0      12.2039      24.7826      2.97671
    138 1 0       9.7145      28.9008      3.54224
    139 1 0      28.1803      9.11007      2.95534
    140 1 0      14.8588      27.5156      4.03235
    141 1 0       10.028      16.5447      3.26223
    142 1 0      22.1437      24.7821      3.32445
    143 1 0      18.9952      29.1844      3.38176
    144 1 0      5.61113      6.80838      3.76145
    145 1 0      26.2506      28.4197      3.83363
    146 1 0      27.0153      18.4894      3.75298
    147 1 0      2.29387      3.56172      3.47724
    148 1 0      9.90855      25.3281      3.57674
    149 1 0       27.502      29.8308      2.93826
    150 1 0      4.34279      3.09384       3.8643
    151 1 0      29.8688       18.605      4.18839
    152 1 0      1.97278      21.1942      5.18968
    153 1 0      15.3735      17.8124      3.83632
    154 1 0      9.30419      20.8879      3.92366
    155 1 0        26.63      25.9862      3.70115
    156 1 0      5.15466      10.5043      3.58125
    157 1 0      19.0726      7.62941      3.09897
    158 1 0      21.1698      7.12433      4.14863
    159 1 0       30.267      8.48147       3.6161
    160 1 0      0.35685       26.062      4.55295
    161 1 0      8.63137      18.3922      3.88779
    162 1 0      17.5599      6.11075      2.97985
    163 1 0      25.8103      2.42098      4.20911
    164 1 0      7.33085      28.2632      3.87007
    165 1 0      28.6267      20.3266      4.10368
    166 1 0      1.30516      14.8919      3.99575
    167 1 0      28.1198      14.3141       3.1027
    168 1 0      26.9902      16.0358      4.36111
    169 1 0      9.33422      13.2645      4.20019
    170 1 0      9.49106      10.9906      4.20481
    171 1 0      14.7649      7.80855      4.56348
    172 1 0      13.1927       18.167      4.14715
    173 1 0      12.5952      9.19957       4.2512
    174 1 0      8.82613      4.29722       4.5938
    175 1 0      27.6938      1.33663      4.13826
    176 1 0      18.4434      22.4349      4.19506
    177 1 0      14.8628      10.2267      4.46368
    178 1 0      7.74656      22.5569       4.0515
    179 1 0      5.30822      18.6711      5.11348
    180 1 0      29.9297       13.521      4.56156
    181 1 0      1.43437        18.34      5.38073
    182 1 0      1.15365      10.0236      4.05997
    183 1 0      9.31513      6.54449      4.21598
    184 1 0      28.6826      27.7879      3.77357
    185 1 0      24.3054      9.32521      4.35166
    186 1 0      10.0076      1.19835      4.75655
    187 1 0       1.4134      24.0155      4.18349
    188 1 0      24.1541      5.45868      4.47743
    189 1 0      20.9528      30.3931      4.42157
    190 1 0      12.8374      13.3527      4.46241
    191 1 0      17.8629      20.1896      4.77646
    192 1 0       27.418      12.4733      3.92645
    193 1 0      28.5947       25.431       3.9122
    194 1 0      12.9126      20.4696      4.53869
    195 1 0      7.10145      14.0773      4.62483
    196 1 0      6.86351      0.14559      3.73948
    197 1 0      21.8323      2.57748      5.25472
    198 1 0      21.7791       19.181      4.59924
    199 1 0      12.7805      26.8114      5.01933
    200 1 0      18.3139      2.77824       4.3362
    201 1 0       3.4302      7.05892      4.63683
    202 1 0      29.7427       4.4348      4.31532
    203 1 0      10.7643       3.2427      4.68555
    204 1 0      16.6058      1.12159      4.78238
    205 1 0      23.8533      1.26835       4.8385
    206 1 0      18.6498      27.0085      4.53582
    207 1 0      21.8964      4.87417      4.77173
    208 1 0      21.7764      10.9509      4.59272
    209 1 0      25.0325      12.8975      4.36496
    210 1 0       24.845      21.7156      4.02609
    211 1 0      2.72716       29.456      4.67682
    212 1 0      7.61424      10.2642      4.93769
    213 1 0      22.4288      21.3692      4.43825
    214 1 0      15.5562      2.95198      4.93245
    215 1 0      26.7383      6.38222      4.74402
    216 1 0      12.9267      6.53879      4.80842
    217 1 0      14.2628      15.0937      4.74043
    218 1 0      13.6507      0.70487      5.32102
    219 1 0      22.6975      29.1569      4.86308
    220 1 0      3.31677      9.39503      4.72251
    221 1 0      19.4865      10.9841      4.85414
    222 1 0      7.61498      7.56947      5.05379
    223 1 0       18.788      16.5496      5.22764
    224 1 0      13.8741      28.9207      5.79678
    225 1 0      21.6976      14.3926      5.18851
    226 1 0      15.1238      23.4588      5.36841
    227 1 0      11.0014      28.3027      5.47485
    228 1 0      28.5508      17.0903      5.42317
    229 1 0      0.74963      30.1895      4.80722
    230 1 0      12.9349      24.3313      5.26725
    231 1 0      25.1919      19.4144      4.51706
    232 1 0      22.1754      8.85268      5.17478
    233 1 0      11.0573      21.0952      5.42518
    234 1 0      16.6053      26.6193      4.94198
    235 1 0       4.4225      25.2754       4.9372
    236 1 0      5.38469      20.8832      6.83659
    237 1 0      27.6126      9.84932      5.10128
    238 1 0       20.611      25.3772      5.23907
    239 1 0      10.7165      16.0759      5.47178
    240 1 0      25.7817      4.13977      5.54342
    241 1 0      16.9493      13.0003       5.2954
    242 1 0      11.2802      10.0047      5.49587
    243 1 0      19.5772      18.7792      5.53732
    244 1 0      11.3516      23.3612      6.35426
    245 1 0      23.4378      15.9903      5.50589
    246 1 0      5.88618      12.2274      5.16427
    247 1 0        24.68      7.48231      5.37988
    248 1 0      10.7842       13.906      5.60755
    249 1 0      29.6802      28.6144      5.42483
    250 1 0       11.105      7.39698       5.3734
    251 1 0      23.1673      25.4568      5.58812
    252 1 0      16.4121      16.7764      5.68947
    253 1 0      30.3311      6.81361      5.46598
    254 1 0      13.2361      11.5072      5.55971
    255 1 0      0.92357       3.3711      5.45932
    256 1 0      25.3189      14.9301       5.5526
    257 1 0      4.35588       21.419      5.06247
    258 1 0      2.91637      27.2304      5.29446
    259 1 0      17.5674      4.68738      4.94018
    260 1 0      25.4656      11.0047      5.36873
    261 1 0      12.8567      16.7169      5.70627
    262 1 0      25.9807      29.0343      5.88173
    263 1 0      20.0046      1.65873      5.61541
    264 1 0      23.3715      18.2911      5.71143
    265 1 0      18.7504      8.78821      5.23639
    266 1 0      11.4772       30.465      5.93943
    267 1 0      0.51612       11.582      5.53038
    268 1 0      7.84097      1.06575      5.73857
    269 1 0       5.5329      6.12222      5.74575
    270 1 0      22.8343      12.4531      5.69533
    271 1 0      3.04622      23.4341      5.64311
    272 1 0      29.3848      23.8073      5.48846
    273 1 0      5.38395      3.95536      5.84924
    274 1 0      9.50094      24.8201      5.91047
    275 1 0      28.0721      5.10341      5.75256
    276 1 0       3.5019      15.1883      5.19113
    277 1 0      1.60369      16.3262      6.14595
    278 1 0      29.9983      15.4494      6.07789
    279 1 0      24.2631      30.2553       6.1704
    280 1 0      19.7947      23.4897      5.85417
    281 1 0      16.4176       9.0255      5.97729
    282 1 0      28.7623      21.6191      6.10485
    283 1 0      5.15717      16.6568      6.19132
    284 1 0      7.51606      3.27064      6.10933
    285 1 0      14.4693      21.3729      6.12233
    286 1 0      6.94809       27.444      6.07749
    287 1 0      19.1335      29.3058      5.44487
    288 1 0       19.927      14.7716      6.29685
    289 1 0      4.30958      30.4428      5.96293
    290 1 0      29.9038      9.77315      5.82653
    291 1 0       25.382      26.4758      5.69424
    292 1 0      15.6652      11.2559      6.05513
    293 1 0      16.4482      20.2065      6.39403
    294 1 0      7.62331      23.6715      6.01255
    295 1 0      13.9228      2.54656      6.80305
    296 1 0      8.95564      18.5805      6.25784
    297 1 0      15.7821      14.6124      6.29307
    298 1 0      28.7438      11.8598      5.89292
    299 1 0      7.11093      15.3142      6.41169
    300 1 0      22.2083      27.4351      6.36301
    301 1 0      27.1999       24.799       5.8773
    302 1 0      18.8416      12.6089      6.24446
    303 1 0      15.9421      28.4618      6.48452
    304 1 0      1.45115      20.1901      7.03601
    305 1 0      9.37191       27.047      6.68272
    306 1 0      16.3549      24.8204      6.51727
    307 1 0       17.014      30.4101      6.40231
    308 1 0      1.88719      6.54669      6.53359
    309 1 0      27.0792      8.17246      6.46798
    310 1 0      0.21495      1.43682      6.23074
    311 1 0      6.09793      25.2895      6.38598
    312 1 0      25.6428      23.0198      5.80994
    313 1 0      21.8059      22.3281      6.44228
    314 1 0      28.4218      1.40046      6.43375
    315 1 0      19.9974      27.4141      6.59565
    316 1 0      4.02221      13.0123      6.25216
    317 1 0      28.0119      29.7752      6.71288
    318 1 0       12.807      25.8529      7.16221
    319 1 0      9.12497      16.4584      6.88361
    320 1 0       15.789      4.55168      6.72091
    321 1 0      11.9458       3.4915      6.80443
    322 1 0      0.64974      26.9261      6.47152
    323 1 0      8.27993      8.95958      6.89741
    324 1 0      23.6102      23.7944      6.87551
    325 1 0      14.4525      6.19579      6.74217
    326 1 0      20.7638      4.72057        7.018
    327 1 0      7.57022      19.5383       7.6285
    328 1 0      20.5419      2.45457       7.8091
    329 1 0       25.733      19.4106      6.78965
    330 1 0      23.3251      2.21589       7.0945
    331 1 0      4.76447      28.4741      6.59544
    332 1 0      27.6408      18.1124      7.30731
    333 1 0      10.5065      19.9738        7.223
    334 1 0      13.4725      27.9964       7.8616
    335 1 0      26.6414      21.5691      7.00701
    336 1 0      15.7865      18.1197       7.5549
    337 1 0      3.23314      9.82231       7.1501
    338 1 0      2.25303      11.7627       7.1304
    339 1 0      1.76839      4.52943      7.32571
    340 1 0      18.7881      5.51176      6.94121
    341 1 0      19.4791      7.88117      7.07291
    342 1 0      30.0586      20.8115       7.9086
    343 1 0      7.00354      11.1474      7.18431
    344 1 0      7.09297      6.95131       7.4131
    345 1 0      27.3533      3.37953       7.4585
    346 1 0      28.7552      6.98579       7.1563
    347 1 0       21.878      8.44638       7.3917
    348 1 0      10.3197      8.96955      7.36681
    349 1 0      18.2193      11.1512      8.11341
    350 1 0      0.01643      24.8353       7.2341
    351 1 0      24.7298      3.70386      7.64571
    352 1 0      13.5093      17.4254      7.69191
    353 1 0      18.3958      24.1267      7.56581
    354 1 0      12.0082      11.1831      7.67861
    355 1 0      10.6086      0.27034      7.93241
    356 1 0      10.7279      25.6544      8.05461
    357 1 0      3.84882      3.50031      7.67471
    358 1 0      19.6393       19.528      7.89881
    359 1 0      10.7612      12.9703       7.7798
    360 1 0      24.1633      7.62917       7.5126
    361 1 0      22.8045      16.6386       7.8987
    362 1 0      3.61729      16.4068       7.5247
    363 1 0      3.49349      20.3053       8.3027
    364 1 0      2.18889      23.9128       7.6692
    365 1 0      25.1922       11.193      7.67021
    366 1 0      10.9153      6.83479      7.77841
    367 1 0      14.2882      11.7974      7.91871
    368 1 0      8.21306      30.4549      7.85771
    369 1 0      3.60848       1.1575       7.8838
    370 1 0      25.8363      14.8019      7.86081
    371 1 0      5.03877      18.4926       7.8099
    372 1 0      7.22487      22.2721      7.76011
    373 1 0      17.2843      16.8472       8.4862
    374 1 0      29.2438      14.9902      8.00031
    375 1 0      8.52773      3.73207       8.1367
    376 1 0      23.5513        19.07      7.91211
    377 1 0      17.5504      20.5146       8.3767
    378 1 0      12.6682      5.40393      7.89091
    379 1 0      2.34076      18.2985        8.155
    380 1 0      18.9339      0.56897       7.5595
    381 1 0      15.6011      7.86597      7.87261
    382 1 0      23.0841       11.687      8.02021
    383 1 0       7.8684       28.185       8.2579
    384 1 0      14.9211      25.6547      8.26561
    385 1 0       30.242      8.72369      7.95261
    386 1 0      20.8189      15.9762      8.26881
    387 1 0      23.1257      28.1828      8.38241
    388 1 0      1.84496      8.02719       8.1389
    389 1 0      14.5327      1.90639      8.81761
    390 1 0      25.3852      27.5553       7.9508
    391 1 0      29.2408      28.0235       7.8895
    392 1 0      10.6539      2.53474       8.3219
    393 1 0      21.7161      20.7116      8.12561
    394 1 0      7.05118      13.8104      7.97311
    395 1 0      14.7313      14.0045      8.37561
    396 1 0      2.80142      27.4431      7.78191
    397 1 0      23.7537      0.07021      8.42181
    398 1 0      11.6722      29.0489       9.1527
    399 1 0      27.8915      25.9265       7.9611
    400 1 0      19.6739      29.1718      8.28261
    401 1 0      25.8721      9.20078       8.1838
    402 1 0      8.89519       5.9485      8.51791
    403 1 0      1.24646      0.76382       8.2363
    404 1 0      10.0144      27.3697       8.9277
    405 1 0      19.1814      26.0747      8.39921
    406 1 0      28.6953      12.7142       8.1855
    407 1 0      12.4489      19.3614      8.44551
    408 1 0      13.6381      21.1522      8.35421
    409 1 0      27.4423      16.4432        8.623
    410 1 0      15.9945       10.172       8.2356
    411 1 0      21.8651      6.20335        8.324
    412 1 0      5.30274      10.0004        8.132
    413 1 0      16.4843      0.91776      8.62761
    414 1 0      15.5861      27.8962       8.8171
    415 1 0      26.5864      12.8651       8.6526
    416 1 0       29.241      18.9432      8.78721
    417 1 0      8.73359      12.3428       8.7007
    418 1 0      5.06841      13.0838        8.471
    419 1 0      28.6571      5.07173      8.57511
    420 1 0       9.3363      21.4782       8.6952
    421 1 0      16.7049      14.6424      8.62231
    422 1 0      1.70539      22.0231       8.6586
    423 1 0      16.6321      3.95907      8.66911
    424 1 0      18.4824      13.0958      8.94651
    425 1 0      21.9908      9.95819       8.9209
    426 1 0      23.8457      5.50472       8.7858
    427 1 0      17.5146       6.6587      8.72551
    428 1 0      19.2728      17.2152      7.50291
    429 1 0      25.6609      18.5834      9.22321
    430 1 0      0.86608      28.8668       8.4984
    431 1 0      27.6723      1.17422      8.90061
    432 1 0      13.3156       15.666        8.972
    433 1 0      5.49578      25.1912       8.8125
    434 1 0      26.7871      29.2949      8.69041
    435 1 0      26.7935      22.0596       9.2394
    436 1 0      9.62624      16.2604      9.10411
    437 1 0      24.1955      15.1472      9.18721
    438 1 0      21.9207      1.56749      9.01051
    439 1 0      19.7104        9.602       8.9179
    440 1 0      6.02399      7.81215      8.97991
    441 1 0      17.9411      22.5554      9.17961
    442 1 0      23.8541      24.6398       9.0923
    443 1 0      0.37443      4.31113       9.0254
    444 1 0       12.544      0.89755      9.60891
    445 1 0      11.2033      14.7188       9.3354
    446 1 0      4.74848      28.5212      9.04381
    447 1 0      10.8596      23.4029      8.89621
    448 1 0      3.33355      25.4716      8.86801
    449 1 0      21.5672      29.8013      9.41731
    450 1 0       16.527      18.7691      9.85111
    451 1 0       18.332      2.20597       9.3187
    452 1 0       25.773      2.53273       9.3943
    453 1 0      8.81236      10.1828      8.96451
    454 1 0      20.6142      14.0708      9.40521
    455 1 0      28.6417      21.0196      9.93741
    456 1 0      0.67452      17.6912        9.423
    457 1 0      19.0603      4.11289        8.975
    458 1 0      3.91805      14.8293        9.285
    459 1 0      0.72331      15.7294      8.52201
    460 1 0      17.3146      26.2846       9.3879
    461 1 0      4.86181      4.03443      9.51441
    462 1 0      13.6436      10.5431      9.94491
    463 1 0      7.06929       3.1786       9.6586
    464 1 0      7.15069      0.95755       9.5716
    465 1 0      11.7223      8.31764       9.5124
    466 1 0      1.66745      12.0187         9.42
    467 1 0      25.9044      25.9597       9.4291
    468 1 0      29.5259       24.727      9.38141
    469 1 0      25.3176      0.44576       9.6373
    470 1 0      22.8011      13.3344      9.53401
    471 1 0      6.49917      18.0317      9.34711
    472 1 0      4.79284      0.36545      9.72601
    473 1 0      24.8241        7.927      9.81821
    474 1 0      12.7737      22.7914       9.6451
    475 1 0      22.7121      26.5456      9.92041
    476 1 0      6.54914      23.2583        9.574
    477 1 0      3.21248      20.9623      10.2723
    478 1 0      14.0573       8.4558       9.6892
    479 1 0      7.37697      15.7964       9.2888
    480 1 0      30.1758       22.429      9.82151
    481 1 0      23.7212      17.4608      9.62321
    482 1 0      18.1512      28.4522       9.8346
    483 1 0      16.3622      29.5921      10.0107
    484 1 0      27.4316      24.0977       9.9179
    485 1 0       15.547      21.0569      9.76201
    486 1 0      6.30021      27.2397      9.76511
    487 1 0      29.4126      9.58951       9.7638
    488 1 0      18.8403      7.86251      10.0616
    489 1 0      14.5285      24.4533      10.0075
    490 1 0      0.62196      2.09543      9.81901
    491 1 0      30.0279      11.7702       9.7776
    492 1 0      25.7243       20.579      10.3544
    493 1 0      5.02526      11.1228       9.9735
    494 1 0      1.92371      14.3318      9.77101
    495 1 0      20.5669      26.2072       10.354
    496 1 0      12.8576      4.53181       10.147
    497 1 0       8.4968      27.2943      10.8334
    498 1 0      21.6118      21.5138       10.122
    499 1 0      2.96154      18.8273      10.5115
    500 1 0      27.0896      9.19827      10.2991
    501 1 0      2.59755      7.15126      10.1634
    502 1 0      4.68935      6.36848      10.2825
    503 1 0      7.21503      9.56015      10.1655
    504 1 0      2.46693      27.9146      10.0658
    505 1 0      11.5414      2.78989      10.3888
    506 1 0      20.6426      6.66866      10.3771
    507 1 0      8.31529      19.5929      10.0131
    508 1 0       9.8538      17.8794       10.464
    509 1 0      11.9442      29.3583       11.447
    510 1 0      16.4799      10.7394      10.4544
    511 1 0      15.4365      12.8819      10.4291
    512 1 0      12.0729      18.5262      10.5952
    513 1 0      16.4768      23.0587      10.7514
    514 1 0      14.8075      3.68922      10.4081
    515 1 0      16.3554      5.56697      10.6308
    516 1 0      27.8229      28.5856      10.3823
    517 1 0      14.0295      28.3226      10.6235
    518 1 0       11.003       10.543        9.549
    519 1 0        23.13       9.0893      10.7108
    520 1 0      8.87411      6.18541      10.7024
    521 1 0      30.2192       28.356      10.5324
    522 1 0      27.4285       16.884      10.8484
    523 1 0      5.31114      15.8302      10.6563
    524 1 0      28.4648      18.9839      11.2107
    525 1 0      28.9072      1.60261      10.6947
    526 1 0      22.8916      23.5956       10.673
    527 1 0      20.7606      2.54956       10.925
    528 1 0      13.6536      16.8139      11.0447
    529 1 0      24.7031      5.58768      11.0504
    530 1 0      18.9092      18.7616      10.1295
    531 1 0      5.31808       21.777      10.9445
    532 1 0      26.5312      12.7887      11.0087
    533 1 0      1.05266      5.56457      10.8461
    534 1 0       19.417      22.5379      10.8801
    535 1 0      18.7819      10.7886      10.8873
    536 1 0      28.1752      5.60695      10.8575
    537 1 0      8.24555      12.8216      10.9775
    538 1 0      10.0173      25.3305      10.5158
    539 1 0      4.17139       2.4057      10.9914
    540 1 0      19.8087      4.81513       11.117
    541 1 0      12.5577      6.12014      11.9082
    542 1 0      19.6688      16.4419      10.4498
    543 1 0      0.13805      26.1396      10.9824
    544 1 0      2.95695      10.8759      11.1221
    545 1 0      17.1877      14.1098      11.3605
    546 1 0      25.3394      16.4601       11.222
    547 1 0      7.16135      7.35092      11.1773
    548 1 0      23.8351      21.4154      11.2786
    549 1 0      1.35112      22.2406      11.1714
    550 1 0      15.7195      17.8541       11.511
    551 1 0      4.82181      18.0234      11.0788
    552 1 0      9.50495      29.1877      11.1047
    553 1 0      8.40708      0.52801      11.3006
    554 1 0      17.2402      25.1103      11.2251
    555 1 0       2.5711      25.8834      11.0939
    556 1 0       11.544      13.9611      11.3584
    557 1 0      6.33443       19.949      11.3504
    558 1 0      3.54738       29.661      11.3331
    559 1 0      26.6661      7.04551      11.3817
    560 1 0      11.8025      11.5875      11.5124
    561 1 0      8.34598      23.5633      11.0364
    562 1 0      25.6877      3.49069      11.5318
    563 1 0      24.8085      14.0155       11.491
    564 1 0      19.6603      28.0153      11.5628
    565 1 0      21.2755      29.5379      11.6393
    566 1 0      14.7593      7.11228      11.4026
    567 1 0      10.8678      7.52611      11.3196
    568 1 0      0.53102      15.5621      11.3875
    569 1 0       9.4443      21.7228      11.1709
    570 1 0      20.8054      24.3725      11.5602
    571 1 0      19.1067      12.8694      11.5092
    572 1 0      8.20885      4.03267      11.4109
    573 1 0      18.5483      1.65787       11.569
    574 1 0      21.1299      14.0012      11.4699
    575 1 0      26.2505      27.1398       11.431
    576 1 0      12.2776       0.9012      11.9873
    577 1 0      2.12843      2.26597      11.6151
    578 1 0      30.3486      8.77691       11.604
    579 1 0      15.6276      9.22003      11.9641
    580 1 0       22.829      17.7944      11.8369
    581 1 0      9.82215      2.38979      11.8631
    582 1 0      11.7809      21.9732      11.6307
    583 1 0      13.6693      26.0952       11.511
    584 1 0      19.9063      20.2688      11.5456