LAMMPS data file via write_data, version 12 Dec 2018, timestep = 16400000

5680 atoms
3 atom types

7.6534182996922823e+01 1.1546581700307556e+02 xlo xhi
7.6534182996922823e+01 1.1546581700307556e+02 ylo yhi
7.6534182996922823e+01 1.1546581700307556e+02 zlo zhi

Masses

1 1.008
2 12
3 14

Atoms # charge

3070 1 1.2245059800657643e-01 7.9600574210936628e+01 8.1624668109718769e+01 7.8524669373161345e+01 0 0 0
3069 2 -9.2906542128164252e-02 7.8941353092339327e+01 8.1907085559808650e+01 7.7759836721393654e+01 0 0 0
3075 1 6.0316769472232620e-02 7.9819635180708090e+01 7.9480008575823334e+01 7.8271987562878792e+01 0 0 0
3247 1 7.9689537646482483e-02 8.0592840247149880e+01 7.9103260453677009e+01 8.2245647906862331e+01 0 1 0
3241 2 -5.6231589702729450e-02 8.1677426547421703e+01 7.7701901448383495e+01 8.0290092636288819e+01 0 1 0
3242 1 6.7387001284243783e-02 8.1098573399162376e+01 7.8609449521418625e+01 8.0178488871040685e+01 0 1 0
3256 2 1.1398732250234242e-01 7.8270712391742734e+01 8.0363235917400587e+01 8.1797949385987152e+01 0 1 0
3257 3 -1.8513804303041129e-01 7.8568517437937743e+01 8.1426042167580135e+01 8.1393636411288043e+01 0 1 0
3251 2 -7.2456115117779524e-02 7.7901790162126318e+01 7.9050175475805830e+01 8.2336727008462759e+01 0 1 0
4762 1 9.9048689962941250e-02 8.1234772175766466e+01 8.0846121794014934e+01 8.4023804006093840e+01 0 0 0
3248 2 -1.1199476750445789e-01 7.8798480929056424e+01 7.7953340797263778e+01 8.1738574919240762e+01 0 1 0
3089 2 -6.2324354713832748e-02 7.7730083204107473e+01 7.7826489165850177e+01 7.8304517301799820e+01 0 0 0
3090 1 4.8665294004178836e-02 7.7935471290193149e+01 7.8654316722957716e+01 7.8996836064226713e+01 0 0 0
3246 2 -7.6071256233540274e-02 8.0279648088225997e+01 7.8079432522609210e+01 8.2301939133569022e+01 0 1 0
3074 2 -6.8117780085227161e-02 7.9434446758524658e+01 7.9458773739795262e+01 7.7296204196179318e+01 0 0 0
4764 1 1.0922409682869839e-01 8.2104873304992097e+01 8.1696001502808883e+01 8.1827743546225705e+01 0 0 0
3249 1 6.1186652488726422e-02 7.8862612150614012e+01 7.7946497964600312e+01 8.0638634161412298e+01 0 1 0
3253 2 -2.1562463364287607e-01 7.8015718507358443e+01 7.9262441438715555e+01 8.3860970609904257e+01 0 1 0
4760 2 -1.3422103193224749e-01 8.1868540606390923e+01 8.1749508651177010e+01 8.3931853347012705e+01 0 0 0
3243 2 -1.3754762945668914e-01 8.1133716678594126e+01 7.6947512665867890e+01 8.1527108505239852e+01 0 1 0
3258 2 1.0991175658287701e-01 8.0411508008349728e+01 7.7566265243483457e+01 8.3680609067188414e+01 0 1 0
3067 1 1.0730292677277931e-01 7.7163245801439345e+01 8.2211741755187305e+01 7.9034160483942941e+01 0 0 0
3255 1 1.2521710736933470e-01 7.9106520542134447e+01 7.9406348804488360e+01 8.4081683928851305e+01 0 1 0
3238 2 -1.4926967910951239e-01 8.1695336182458277e+01 7.6841484802026613e+01 7.9047995730677556e+01 0 1 0
3254 1 8.9064070399660078e-02 7.7624154763326274e+01 7.8447778980415407e+01 8.4474987008389732e+01 0 1 0
3076 2 -1.4770625737426199e-01 7.8600657771567498e+01 7.8132989110412296e+01 7.7022302346768029e+01 0 0 0
4761 1 1.1018553700613365e-01 8.2434840591681393e+01 8.1828956305061681e+01 8.4876494658327388e+01 0 0 0
4763 2 -7.7176851880665559e-02 8.2847699805991851e+01 8.1570185345648355e+01 8.2633547481777498e+01 0 0 0
5529 3 -1.5141618664300416e-01 8.2186378706390613e+01 7.7874402505716631e+01 8.5446390640679013e+01 0 1 0
3078 1 1.2807387040833704e-01 7.9267492694787322e+01 7.7251111226621035e+01 7.6840382385261393e+01 0 0 0
5528 2 1.0566390889906374e-01 8.2964433432599918e+01 7.7087829695769884e+01 8.5891126730274792e+01 0 1 0
3252 1 9.2247968410909570e-02 7.6885368023437550e+01 7.8782933003771802e+01 8.2102282520441349e+01 0 1 0
4788 3 -1.7057910885871930e-01 8.2849862066842036e+01 8.1568582471347995e+01 7.9221410088707103e+01 0 0 0
3266 1 9.9114323119702835e-02 7.7604685672171215e+01 8.0190515682651423e+01 8.4261423206606736e+01 0 1 0
3239 1 1.0899005691646088e-01 8.1988891433880369e+01 7.7349190849221685e+01 7.8092112370822406e+01 0 1 0
3072 1 6.0137314840199629e-02 7.7489811744444822e+01 8.0286078589196279e+01 7.7512967574722822e+01 0 0 0
3071 2 -1.2438729465927352e-01 7.8390815127868052e+01 8.0637471381617658e+01 7.7028213748296082e+01 0 0 0
3081 2 1.3054364948451785e-01 7.9666558842098084e+01 8.2657138511329222e+01 7.6717854214892071e+01 0 0 0
3066 2 -1.0967119366380236e-01 7.7670563815376823e+01 8.2785035557689270e+01 7.8286509022424809e+01 0 0 0
3068 1 5.5076740807368282e-02 7.6890916432103793e+01 8.3006743917080456e+01 7.7470324270307600e+01 0 0 0
4792 3 -1.7746828137162471e-01 7.8616383775388584e+01 8.2736486505192403e+01 8.2727297653976109e+01 0 0 0
4791 2 1.1884090196560443e-01 7.9704074437670670e+01 8.2870620665000700e+01 8.3144981138163175e+01 0 0 0
3259 3 -2.0338233907230907e-01 8.0574864031122132e+01 7.7203199518239344e+01 8.4786414023020896e+01 0 1 0
3250 1 6.8971117242900962e-02 7.8301600146870811e+01 7.7018005426743656e+01 8.2037935297417704e+01 0 1 0
3260 2 1.1639260545640776e-01 8.3024630811989141e+01 7.8129980492966098e+01 8.0678382785840128e+01 0 1 0
5527 1 1.0120726100958061e-01 8.5674498573841760e+01 7.7454462921095768e+01 8.5986956369525927e+01 0 1 0
4789 2 1.2652958928128238e-01 8.3539557884807579e+01 8.0269323366015300e+01 8.2715029943063058e+01 0 0 0
4720 3 -1.7079255467914822e-01 8.3512010210405151e+01 8.0333290337248826e+01 7.8050867147999369e+01 0 0 0
4790 3 -1.4479751734187241e-01 8.4119268495572101e+01 7.9249145299231628e+01 8.2817581194333798e+01 0 0 0
3261 3 -1.3793554121685109e-01 8.4110338215744918e+01 7.8452671217719313e+01 8.0970811178016774e+01 0 1 0
5439 1 9.4491832152753960e-02 8.7790629556553483e+01 7.8261094847609286e+01 8.4220992738051976e+01 0 1 0
4719 2 1.0784487892281762e-01 8.4328744371002742e+01 8.0916903052563768e+01 7.7421356830030405e+01 0 0 0
5467 3 -2.0232075202420383e-01 8.7659729069968876e+01 7.9497374017815730e+01 8.1117863318264469e+01 0 1 0
5466 2 1.2094578459966057e-01 8.8555335543018288e+01 7.9115816901274442e+01 8.1777360634043802e+01 0 1 0
4771 1 1.6353053418007740e-01 8.5836187961323375e+01 8.1188547584176916e+01 8.1182883595527542e+01 0 0 0
4776 1 1.0986776885275801e-01 8.8295146926437837e+01 8.1688934317306845e+01 8.2344977962240620e+01 0 0 0
5426 3 -1.6571527970500607e-01 8.7096383555333830e+01 7.8294072193838346e+01 7.9779297748576752e+01 0 1 0
5438 2 -7.3395542096621122e-02 8.8358810325212445e+01 7.9147297628147413e+01 8.4694855829410756e+01 0 1 0
5464 2 1.1864123143653199e-01 8.7558526188437128e+01 8.0418653833390934e+01 8.4557846776629191e+01 0 1 0
5425 2 9.9354799159790980e-02 8.8097601647549922e+01 7.7756833401180629e+01 7.9455238998856586e+01 0 1 0
5465 3 -2.0385335786196096e-01 8.6887652932745311e+01 8.1374400261395323e+01 8.4523510265975759e+01 0 1 0
4692 1 7.8160019605277381e-02 8.6711975379087519e+01 8.0446886458505020e+01 7.7829798255014225e+01 0 0 0
4772 1 9.6836450394399309e-02 8.6015684868001273e+01 8.2119131243802215e+01 7.9857300937328873e+01 0 0 0
4770 2 -1.5253833544498369e-01 8.5841623817283192e+01 8.2242641527805532e+01 8.0910269002849859e+01 0 0 0
4775 2 -1.3531800565244109e-01 8.8352136358897184e+01 8.2513428022777276e+01 8.1690191504671091e+01 0 0 0
3234 1 1.1560691561275581e-01 8.4203551992048986e+01 7.6994331909956372e+01 7.8731204471439298e+01 0 1 0
4689 1 7.0465470840853361e-02 8.8413226191101487e+01 8.2165943021667516e+01 7.7389461024873455e+01 0 0 0
1738 3 -1.9058948981067392e-01 8.5442895115515483e+01 8.0958476964733038e+01 8.5626336944205931e+01 0 0 0
4690 2 -1.0433387667928755e-01 8.6600540651146900e+01 8.0899055485286880e+01 7.6840648640796005e+01 0 0 0
4777 1 9.7061709640074600e-02 8.8640258523725166e+01 8.2096728924817484e+01 8.0736181120920847e+01 0 0 0
4787 2 1.0635198428842621e-01 8.3516440075842681e+01 8.2167618325625043e+01 7.9991936631793095e+01 0 0 0
4767 1 1.0253393843432218e-01 8.4744372161887497e+01 8.2709496083003756e+01 8.3122972009369803e+01 0 0 0
5444 1 3.6216381731629041e-02 8.7595771082791643e+01 7.6710656223242495e+01 8.5944774208669486e+01 0 1 0
5406 1 6.0500059132899547e-02 8.7357802831903172e+01 7.8125177724144450e+01 7.6854114117425439e+01 0 1 0
5413 2 -8.4447378968894510e-02 8.9319221664986003e+01 7.7057750846541907e+01 7.9021926685975544e+01 0 1 0
5412 1 8.3495967798357218e-02 8.9463601219078654e+01 7.8838391751636706e+01 7.7705858385662623e+01 0 1 0
4694 1 7.4668794638737421e-02 8.5525088073100690e+01 8.2687615078252861e+01 7.7000551582917879e+01 0 0 0
4765 2 -1.1692067695515766e-01 8.3867568528758994e+01 8.2783850722550440e+01 8.2495119757897712e+01 0 0 0
4768 2 -5.9241612007784827e-02 8.4367628161843527e+01 8.2878908385175833e+01 8.0986812421303981e+01 0 0 0
4693 2 -7.6771479001309303e-02 8.5339054420359304e+01 8.1701888031501213e+01 7.6659979750961085e+01 0 0 0
5440 2 -1.1461977241423341e-01 8.8429072954299500e+01 7.8801942520940798e+01 8.6199157473097671e+01 0 1 0
5435 2 -1.3409183123434915e-01 8.9713456485334149e+01 7.9272796876614777e+01 8.4005595447963472e+01 0 1 0
412 1 9.2369656822937296e-02 9.5476416286208689e+01 8.0480675412933707e+01 8.1297991992559162e+01 0 0 0
5445 2 -1.2236233654614882e-01 8.9823764297088047e+01 7.6687355666351834e+01 8.6074016695293636e+01 0 1 0
5437 1 7.3547522401402207e-02 8.9829370123944571e+01 8.0330450847055332e+01 8.3906466612969041e+01 0 1 0
5433 2 -8.1212016905092554e-02 8.9659383397914795e+01 7.8623348461594233e+01 8.2575765757399282e+01 0 1 0
5434 1 6.5445994007734098e-02 8.9596405820118221e+01 7.7557816030372820e+01 8.2594472821616989e+01 0 1 0
411 2 -6.7850565323190337e-02 9.5505966822196640e+01 8.0569716232589059e+01 8.2420367714511002e+01 0 0 0
5446 1 7.9588242744495413e-02 9.0038652389874471e+01 7.7005069149664308e+01 8.5067006771853215e+01 0 1 0
408 2 -1.1589687958124201e-01 9.5782511342489514e+01 7.9248868917070965e+01 8.3258011269351485e+01 0 0 0
5436 1 1.1004002142865482e-01 9.0597429338829130e+01 7.8973670294772305e+01 8.4653969337605247e+01 0 1 0
5410 2 -1.3249197786060735e-01 8.9796561687472092e+01 7.7761259486840174e+01 7.7696769298811176e+01 0 1 0
406 2 -8.7268259854282285e-02 9.5515340868106591e+01 7.9435665707517103e+01 8.4822954836906931e+01 0 0 0
5419 1 8.4595027567355235e-02 9.0160041731680707e+01 7.9343791747481546e+01 7.9750178943349297e+01 0 1 0
5415 2 -1.4827998651838104e-01 9.0513633490874099e+01 7.7216480744510278e+01 8.0106183647158247e+01 0 1 0
419 3 -2.3357458454289570e-01 9.2909207533767542e+01 7.9272066572508550e+01 8.5276747177061267e+01 0 0 0
4216 3 -2.1871234698538608e-01 9.4831056380588848e+01 7.8074076584489575e+01 7.9911435049070533e+01 0 1 1
5418 2 -6.0152396369253354e-02 9.0886258479635416e+01 7.8686786750870013e+01 8.0289793270301502e+01 0 1 0
5422 1 6.2103726362868678e-02 9.0976590174177474e+01 8.0229047366401105e+01 8.1838345285228812e+01 0 1 0
5420 2 -1.1123558514362558e-01 9.0953453088082014e+01 7.9122810898140713e+01 8.1738590345414565e+01 0 1 0
5423 2 9.4431953768333354e-02 9.2218840885603427e+01 7.8801538456493631e+01 7.9681620543269304e+01 0 1 0
5424 3 -1.2345658543548596e-01 9.3268920554399372e+01 7.8890119240707733e+01 7.9157350848008122e+01 0 1 0
418 2 1.2305849096252552e-01 9.4055685998146686e+01 7.9388236306897511e+01 8.5083762995090112e+01 0 0 0
5421 1 6.5232411741782625e-02 9.1908840474932020e+01 7.8910213576731266e+01 8.2225046988209030e+01 0 1 0
413 2 -2.3540981418913112e-01 9.4026728692481626e+01 8.0996329651907132e+01 8.2926553113800097e+01 0 0 0
426 1 1.0249490423390648e-01 9.3415724829625162e+01 8.0069663069133156e+01 8.2868790665931954e+01 0 0 0
414 1 1.5093666853633611e-01 9.4019431466238061e+01 8.1336800837087580e+01 8.3931031953844524e+01 0 0 0
415 1 1.1337526697158616e-01 9.3504282322404137e+01 8.1744355631964808e+01 8.2278726811240006e+01 0 0 0
4215 2 1.4773509283087929e-01 9.5601700218228288e+01 7.7878898374462722e+01 7.9042562411224651e+01 0 1 1
4782 1 6.5869155249671713e-02 9.0286054644230305e+01 8.2582499328370588e+01 8.3786481022320288e+01 0 0 0
5411 1 1.3738062266682513e-01 9.0877060999945698e+01 7.7768164129080773e+01 7.7608216689321750e+01 0 1 0
410 1 1.0116046569921408e-01 9.5120494808548585e+01 7.8460403275695739e+01 8.2869729603384684e+01 0 0 0
1732 3 -2.3080495813234594e-01 9.2112895915159456e+01 8.0865821441374777e+01 8.6000507978251505e+01 0 0 0
5416 1 9.9014801893201040e-02 9.0018480020336682e+01 7.6816517244154085e+01 8.1013685825879051e+01 0 1 0
1662 3 -1.1899215149821299e-01 9.3509938253389720e+01 8.0830779879320303e+01 7.6868576011161338e+01 0 0 1
405 1 1.1394611722059332e-01 9.5643589913483652e+01 7.7382364906394457e+01 8.5486402979677294e+01 0 0 0
1653 1 1.0493435413192068e-01 9.1032851084598079e+01 8.2987633204107652e+01 7.6762294538636326e+01 0 0 1
5417 1 1.2050773842212209e-01 9.1364579464443437e+01 7.6704653888127453e+01 7.9779470238832744e+01 0 1 0
1661 2 1.3114929945921072e-01 9.3347722881726071e+01 8.1977418425606828e+01 7.6633782711759693e+01 0 0 1
407 1 1.0050960003529788e-01 9.5965034405612073e+01 8.0408186116908382e+01 8.5139039531777939e+01 0 0 0
4211 1 1.0464713489619561e-01 9.5950293801867232e+01 7.7900853591866465e+01 7.6974332155062484e+01 0 1 1
1489 3 -1.8089263805120603e-01 7.7809860093225993e+01 8.6368567864436784e+01 8.6084430043079550e+01 0 0 0
4716 3 -2.1605818294244350e-01 8.1067215363473949e+01 8.4809651428972117e+01 7.6584708443649205e+01 0 0 0
4746 1 1.0453538492440793e-01 8.1073822766421557e+01 8.3148811411363823e+01 8.6023860849665368e+01 0 0 0
1518 3 -1.9886008813309275e-01 7.8273074833542267e+01 8.9081005109902094e+01 7.7004755295781408e+01 0 0 0
4758 2 -6.8822454903599631e-02 8.1069232743356935e+01 8.3073874577321732e+01 8.3721544099970856e+01 0 0 0
3062 1 1.3189148805819345e-01 7.8601092483481906e+01 8.4913079634211513e+01 7.6908525253955176e+01 0 0 0
1485 3 -1.8423186373486267e-01 8.1184915163324490e+01 8.8694414911230695e+01 8.2233201967158649e+01 0 0 0
1466 1 1.0097084246286671e-01 7.7371715481843410e+01 8.6510277095411780e+01 8.2565310136861953e+01 0 0 0
1488 2 1.1680103385811276e-01 7.7463830345627116e+01 8.7123533796391797e+01 8.5253097743616479e+01 0 0 0
1467 2 -6.7457204805820709e-02 7.7017879617577776e+01 8.8384813579752020e+01 8.1662540439278231e+01 0 0 0
4685 3 -2.0168360785032458e-01 8.0855303814247833e+01 8.8955914218341448e+01 8.4167890799015325e+01 0 0 0
3065 1 1.1507579251834640e-01 7.7279552806991390e+01 8.4440641562634013e+01 7.9621669258545211e+01 0 0 0
4744 1 8.1379697102020296e-02 8.1917574860423400e+01 8.5483233480564479e+01 8.4182261967138885e+01 0 0 0
4759 1 8.2123046628355303e-02 8.1634342811495330e+01 8.3777199727729169e+01 8.3057823249160265e+01 0 0 0
1469 2 -1.2983468276511442e-01 7.8034201216212679e+01 8.8509570292443328e+01 8.0525984457326871e+01 0 0 0
3084 3 -1.7494782500700848e-01 8.0459662190037335e+01 8.4168774923667939e+01 7.9832474094398847e+01 0 0 0
3083 2 1.4459106139013267e-01 7.9371879544415577e+01 8.4179438430340369e+01 7.9402487492898388e+01 0 0 0
3063 1 1.2204904656441434e-01 7.8429290234204416e+01 8.6126106939586236e+01 7.8021894250805786e+01 0 0 0
1464 2 -1.6140748814424702e-01 7.7591114770561134e+01 8.7530489301776797e+01 8.2770619709030811e+01 0 0 0
4757 3 -1.8868956407159374e-01 8.1025040897713609e+01 8.5648485397299879e+01 8.1028519510333297e+01 0 0 0
4756 2 1.1568449333267387e-01 8.2106602481506002e+01 8.5916628748614301e+01 8.0678164100083109e+01 0 0 0
3061 2 -1.5499964601685573e-01 7.7965098803494882e+01 8.5176880063326223e+01 7.7687145471420607e+01 0 0 0
3064 2 -7.5644644597212193e-02 7.7987628682055231e+01 8.4142648437721334e+01 7.8856215913227686e+01 0 0 0
1470 1 1.0877528147005383e-01 7.8464600380213668e+01 8.7490799846585702e+01 8.0377868221308333e+01 0 0 0
1465 1 1.4440564131444691e-01 7.8667605487278635e+01 8.7549614645988598e+01 8.2870972942894042e+01 0 0 0
4745 2 -1.4327734517105251e-01 8.0985783296746604e+01 8.3806119316960860e+01 8.5188910603571244e+01 0 0 0
4743 2 -6.4835398814299436e-02 8.1929058412407272e+01 8.5060247289339955e+01 8.5193876699921447e+01 0 0 0
1471 1 1.0842581803927684e-01 7.7460375688294164e+01 8.8801984430481397e+01 7.9587738003126731e+01 0 0 0
1484 2 1.1940739897914229e-01 8.0318599027575161e+01 8.9088742694607390e+01 8.1534211299596564e+01 0 0 0
4747 1 1.0202664849104125e-01 7.9954854128152448e+01 8.4133956131296728e+01 8.5346857025682993e+01 0 0 0
1462 2 -6.4261484207815911e-02 7.7017051333021826e+01 8.8074922637398672e+01 8.4212107254668894e+01 0 0 0
4711 1 1.1145279935794594e-01 8.2506283115223198e+01 8.6570897839335331e+01 7.8255850833605663e+01 0 0 0
3049 3 -2.0750966789559333e-01 7.9956522782408186e+01 8.8273201762399722e+01 7.7081676587607191e+01 0 0 0
1468 1 5.7960874263694638e-02 7.6809989836099973e+01 8.9325543038113949e+01 8.2076915384257461e+01 0 0 0
4727 1 1.3643075475413372e-01 8.2836094097605454e+01 8.8313778837083589e+01 8.0294958439500064e+01 0 0 0
4704 1 7.2649142296374453e-02 8.4132254719322376e+01 8.4042025250247676e+01 7.6837431711587286e+01 0 0 0
4781 1 1.1941066978149605e-01 8.8794553557837446e+01 8.3396041026027646e+01 8.4098927552768075e+01 0 0 0
4754 2 1.5150066001170667e-01 8.4110206822774742e+01 8.9499554096542909e+01 8.2207693791530303e+01 0 0 0
4657 1 7.5233847464767065e-02 8.3209187256693113e+01 8.9419727404748159e+01 8.6099948531165964e+01 0 0 0
4712 1 1.0091352382033592e-01 8.3235963047233994e+01 8.5021133185771234e+01 7.8476166159923523e+01 0 0 0
4740 2 -1.4129763923431096e-01 8.3375640843186858e+01 8.4653971993490416e+01 8.5717007194986820e+01 0 0 0
4738 2 -7.5783175579513085e-02 8.4343412208145011e+01 8.5972020302974997e+01 8.5577816709689642e+01 0 0 0
4766 1 4.3844983760720033e-02 8.3403726350496569e+01 8.3692699344318271e+01 8.2750202468363909e+01 0 0 0
4773 2 -5.3463010721204310e-02 8.6896253740374277e+01 8.3165793743243754e+01 8.1681360474983066e+01 0 0 0
4729 1 1.1013472846756700e-01 8.3552838646218902e+01 8.7440602688013271e+01 8.2573195320950845e+01 0 0 0
982 1 1.1953696092567259e-01 8.8706716426334111e+01 8.8459144834801080e+01 8.1081602970483630e+01 0 0 0
981 2 -2.4599551594737054e-01 8.8580331681527184e+01 8.9347152119809877e+01 8.0446489825746156e+01 0 0 0
4710 2 -1.2965490860057113e-01 8.3423050031832162e+01 8.6107752137976874e+01 7.8609367608374271e+01 0 0 0
4774 1 6.4625947733314010e-02 8.6536965596613697e+01 8.3443763535777492e+01 8.2683896706281303e+01 0 0 0
4723 2 -6.5155080549310171e-02 8.3442461070822233e+01 8.6223736813585788e+01 8.0207506353277054e+01 0 0 0
4732 1 9.2882894619831291e-02 8.6495376960030683e+01 8.8134341480238248e+01 8.2027405364224762e+01 0 0 0
4736 1 3.9949954490835562e-02 8.4187011321368757e+01 8.5810889178821938e+01 8.3334538518459652e+01 0 0 0
4725 2 -1.4113660768602074e-01 8.3719513061041951e+01 8.7781002977918135e+01 8.0501390763947981e+01 0 0 0
4753 3 -1.8264784788647273e-01 8.8164117872321043e+01 8.7183743925581410e+01 8.4958864728941037e+01 0 0 0
4769 1 5.6753844062699205e-02 8.4422927416308113e+01 8.3945180815370861e+01 8.0753632196589379e+01 0 0 0
4726 1 9.5801956030325833e-02 8.4556621385179540e+01 8.8160832819779529e+01 7.9845392657378952e+01 0 0 0
4728 2 -8.9975932174300707e-02 8.4200135823133991e+01 8.8015536568787667e+01 8.1976960070018379e+01 0 0 0
4709 1 7.9376781052799161e-02 8.4878594037162202e+01 8.7548134703868868e+01 7.7787041512741922e+01 0 0 0
4724 1 4.6168281159122249e-02 8.4194148328214894e+01 8.5558624644451996e+01 8.0729102345475241e+01 0 0 0
4708 2 -8.3080415083222142e-02 8.4686815435741735e+01 8.6518781955651548e+01 7.7719809259943972e+01 0 0 0
4713 2 1.1991593467047962e-01 8.5869635420966347e+01 8.5679695207673547e+01 7.8143952465340973e+01 0 0 0
4714 3 -2.3432756585187425e-01 8.6771432556411980e+01 8.5029148897888334e+01 7.8483564449409670e+01 0 0 0
4734 1 7.0557266608178501e-02 8.5135634504020416e+01 8.8007044941865672e+01 8.4387111741683569e+01 0 0 0
4735 2 -1.0646887849548876e-01 8.4961576147523431e+01 8.5942086614379221e+01 8.4103289589729783e+01 0 0 0
4785 2 1.1350017287158151e-01 8.7099584486882122e+01 8.4428460675729013e+01 8.0899546556461871e+01 0 0 0
4733 2 -7.0580609175261697e-02 8.5729271381055867e+01 8.7262240595546061e+01 8.3892393526428776e+01 0 0 0
4752 2 1.2873176371886566e-01 8.7100940458123077e+01 8.7228497916615282e+01 8.4433844534160812e+01 0 0 0
4786 3 -2.1939928501434464e-01 8.7252784352530639e+01 8.5400119653634576e+01 8.0255900697380355e+01 0 0 0
4731 1 9.7713663438172976e-02 8.5805495078879659e+01 8.6620402238920221e+01 8.1862805411566200e+01 0 0 0
4730 2 -1.3473403614909019e-01 8.5682675973042251e+01 8.7556196636546133e+01 8.2394924362247963e+01 0 0 0
4737 1 8.0523363616018334e-02 8.5630488243570639e+01 8.5129919922386861e+01 8.3944295018498082e+01 0 0 0
983 1 1.2467448104155021e-01 8.8001586588446273e+01 8.9070622880314346e+01 7.9605124487160779e+01 0 0 0
4827 3 -2.1764091650708586e-01 8.9321946247649592e+01 8.7021956802450433e+01 8.3415457143803906e+01 0 0 0
1657 1 8.5477518285285103e-02 8.9365390465364882e+01 8.4845752911470868e+01 7.7193416828310731e+01 0 0 1
4779 1 1.0992358082778385e-01 8.9140351332831955e+01 8.4654417813273895e+01 8.1868149886628586e+01 0 0 0
4741 1 8.4921990204922582e-02 8.3818455659386601e+01 8.3848079725637319e+01 8.5135976989850775e+01 0 0 0
4739 1 6.8391852888187055e-02 8.3824535998841611e+01 8.6872505245297063e+01 8.5924207189919770e+01 0 0 0
4778 2 -7.9574342581049048e-02 8.9404836763388900e+01 8.3620296791015321e+01 8.2011769796984041e+01 0 0 0
4794 1 9.8871504706602026e-02 9.0491944633198528e+01 8.4705405859444269e+01 8.5189300543114683e+01 0 0 0
4811 1 7.3755016781413246e-02 9.1415145790010158e+01 8.7749583419998558e+01 8.0024118983853967e+01 0 0 0
4806 1 1.0840020641565457e-01 9.1831072897748612e+01 8.8602930446271401e+01 8.3573866811920112e+01 0 0 0
4801 1 9.8654407632780494e-02 9.1673631670366177e+01 8.6830835075132882e+01 8.4833919802032440e+01 0 0 0
4804 1 7.3399781525413210e-02 9.4593280282772938e+01 8.7280903915613280e+01 8.3779604608500875e+01 0 0 0
4784 3 -1.9981462166543634e-01 9.1532111501568821e+01 8.3086655471621768e+01 8.0533960628558518e+01 0 0 0
1702 2 1.4162294616551610e-01 8.9781229476554458e+01 8.8060188106763022e+01 7.6558525524329852e+01 0 0 1
4783 2 1.1052941169047495e-01 9.0627166797574446e+01 8.3376659570769945e+01 8.1201254206247754e+01 0 0 0
4807 1 7.9333283812153405e-02 9.3249135166081601e+01 8.9384460479420198e+01 8.2774852057827147e+01 0 0 0
1655 1 5.4920005763641151e-02 9.2130506988243212e+01 8.6001626872314574e+01 7.7019405649430553e+01 0 0 1
4826 2 1.1963951039937863e-01 8.9871954218925197e+01 8.6023778939644018e+01 8.3718004060745201e+01 0 0 0
1654 2 -6.5505403376871982e-02 9.1499622122929736e+01 8.5116173863000355e+01 7.7382770556856300e+01 0 0 1
4815 2 -2.4114861984586244e-01 9.3302151869615102e+01 8.8748126037030175e+01 7.8580881471637070e+01 0 0 0
1703 3 -1.9679107740152282e-01 8.9880255039583659e+01 8.9175115128757554e+01 7.6883192352695175e+01 0 0 1
4820 2 1.0528600869865194e-01 9.3891959001798412e+01 8.6928730742299891e+01 8.1471810320890199e+01 0 0 0
4808 2 -6.3569169709756596e-02 9.2605066800185455e+01 8.7539403170585530e+01 8.1825278164787576e+01 0 0 0
4802 1 1.3774685351648430e-01 9.2853844488766924e+01 8.6827493552570104e+01 8.6039502745857249e+01 0 0 0
4821 3 -1.8802383429231934e-01 9.4940679278646115e+01 8.6450167072534697e+01 8.1177832369379814e+01 0 0 0
4812 1 7.9379230195415082e-02 9.1197155906685225e+01 8.9126506116675358e+01 8.1204850869487998e+01 0 0 0
4797 1 1.0127024385276885e-01 9.2195428220416545e+01 8.5222468136963826e+01 8.2797308088441710e+01 0 0 0
4793 2 -7.6233815745419861e-02 9.0526019691882965e+01 8.4742345344749339e+01 8.4091084235616421e+01 0 0 0
4799 1 7.7325263566929675e-02 9.4141526519127609e+01 8.5127071199110105e+01 8.4164140148086219e+01 0 0 0
4805 2 -1.3441848359651895e-01 9.2806662565088970e+01 8.8434248235503119e+01 8.3072371480522278e+01 0 0 0
4809 1 6.5527005814171355e-02 9.1836024566863088e+01 8.6794974145013569e+01 8.2207108290309449e+01 0 0 0
1658 1 1.0182917139622175e-01 8.9686938231351206e+01 8.6134639288013730e+01 7.8302403250458411e+01 0 0 1
4795 2 -1.2794395742767284e-01 9.2017993753842347e+01 8.4640152477505609e+01 8.3652518865088098e+01 0 0 0
4798 2 -6.7817320439290771e-02 9.3103740005409790e+01 8.5180727848901370e+01 8.4619507111345001e+01 0 0 0
4810 2 -1.1174769996606936e-01 9.1967338626922427e+01 8.8404070955079987e+01 8.0720267410405100e+01 0 0 0
4813 2 -5.2660739824446468e-02 9.3158669308467083e+01 8.9177987210696671e+01 8.0035216080688770e+01 0 0 0
1650 1 1.0310235740785509e-01 9.3864634297551518e+01 8.3989047725812924e+01 7.6868770099941742e+01 0 0 1
4828 1 1.1867044458579667e-01 9.3445116749500983e+01 8.7636733134771646e+01 7.8604995581239521e+01 0 0 0
4780 2 -1.2580378447506468e-01 8.9697611283180422e+01 8.3504281020277134e+01 8.3541614150793635e+01 0 0 0
1660 3 -1.9341940531324001e-01 9.2291301176889220e+01 8.4739883594174117e+01 7.9867414629941408e+01 0 0 1
4824 2 1.3485073337976763e-01 9.3104054859718559e+01 8.4458808656770088e+01 8.5891835205651546e+01 0 0 0
4814 1 8.1220571919468201e-02 9.4034740545421684e+01 8.9004141244482696e+01 8.0631458360080458e+01 0 0 0
1656 2 -1.3291060614071970e-01 9.0037045211147628e+01 8.5661686623938522e+01 7.7360447893339639e+01 0 0 1
4796 1 9.2575066967634873e-02 9.2237048313227291e+01 8.3595298462604958e+01 8.3408389482644338e+01 0 0 0
4817 1 1.1692574836930039e-01 9.4117246205466429e+01 8.9282026647929271e+01 7.8116291981485062e+01 0 0 0
4822 2 9.8290585711013331e-02 9.3997071775965082e+01 8.8824027191711252e+01 8.5088613610774502e+01 0 0 0
4803 2 -6.6192849520446545e-02 9.3654645789798764e+01 8.7694124918402196e+01 8.4204691494555334e+01 0 0 0
4816 1 1.3038264838138050e-01 9.2429077149295352e+01 8.8943318224523537e+01 7.7987672744051139e+01 0 0 0
4800 2 -1.5772772503733409e-01 9.2727012692662228e+01 8.6654273535548455e+01 8.5034240936428176e+01 0 0 0
1659 2 1.1359775027762919e-01 9.1927039305807313e+01 8.4922664226321857e+01 7.8750602321646639e+01 0 0 1
2673 2 -7.3710856819091300e-02 7.8487772459348889e+01 8.2098723173020289e+01 8.9055854920491839e+01 0 0 0
2674 1 6.5034610310636676e-02 7.8936315844044728e+01 8.1826779959669381e+01 9.0001815564153375e+01 0 0 0
3827 3 -1.4357394417946839e-01 8.1577292440117716e+01 8.0044105910837615e+01 9.4256419244859572e+01 0 0 0
2692 2 1.2404295943175792e-01 7.8829732106217818e+01 8.1147586394193468e+01 8.7947570075835898e+01 0 0 0
1978 2 1.0143657397372925e-01 7.9167335930438298e+01 7.8094373935705732e+01 8.8379500136161766e+01 1 1 0
2687 1 9.7096254832761048e-02 7.8594666400072271e+01 7.8897089892111438e+01 9.2747166613734180e+01 0 0 0
2685 2 -2.3656073646024381e-01 7.8208623871847536e+01 7.9831502363792652e+01 9.2261328320221338e+01 0 0 0
2698 1 9.4108674608467890e-02 7.8750161720545506e+01 7.9805272718187950e+01 9.1289480397064466e+01 0 0 0
2686 1 1.4323309682136942e-01 7.8609255162829555e+01 8.0627602334227646e+01 9.2829556688553993e+01 0 0 0
2695 3 -2.1492109032984313e-01 8.2215360097502398e+01 8.2742981821107918e+01 8.8453051390180022e+01 0 0 0
1979 3 -1.4856319049165101e-01 7.9901563330983350e+01 7.8929130092350363e+01 8.7963844929915538e+01 1 1 0
2693 3 -2.0179698827779413e-01 7.9088671505048353e+01 8.0378818183953697e+01 8.7100383204002114e+01 0 0 0
3826 2 9.7480527431070274e-02 8.1102129123881014e+01 8.0251332047791351e+01 9.5305274451274457e+01 0 0 0
1970 2 -1.1828378756827508e-01 7.7630173955822798e+01 7.7392142560154795e+01 9.0282612399443565e+01 1 1 0
1972 1 8.1610199137846964e-02 7.8256147071090197e+01 7.7897296290579135e+01 9.0967567349034255e+01 1 1 0
2669 1 7.8340819111359566e-02 7.9904746843610269e+01 8.2963141220936294e+01 9.0640876227301732e+01 0 0 0
2675 2 -1.3350521653710348e-01 7.6847261437507612e+01 8.2171692153397942e+01 8.9170218398819699e+01 0 0 0
454 3 -2.2702929469964303e-01 8.0745147150288105e+01 7.6819742422126609e+01 9.3876836565390491e+01 0 0 0
2679 1 5.2613574471514157e-02 7.7066424119123056e+01 7.9984657146969283e+01 8.9639744748997686e+01 0 0 0
1740 3 -1.7884532976988418e-01 8.2820181854101406e+01 8.1542914212811525e+01 8.9797092991065924e+01 0 0 0
1973 2 -5.8246685738938882e-02 7.8324682006079158e+01 7.7045405467633273e+01 8.8928605902633564e+01 1 1 0
2681 1 7.8714767974387451e-02 7.6972856516264542e+01 8.2046433008552285e+01 9.1704369134141899e+01 0 0 0
1971 1 5.5874896164626799e-02 7.6811427809257111e+01 7.8031383204767721e+01 8.9993551362452990e+01 1 1 0
3818 1 1.2333458103997982e-01 7.8450433989828312e+01 8.0755125622225066e+01 9.5672352051127476e+01 0 0 0
1965 2 -1.2169364425586293e-01 7.6764306976592309e+01 7.6536839612540788e+01 9.2468891203441288e+01 1 1 0
2683 2 -2.8799692238455098e-02 7.6671585333567492e+01 7.9887493176405783e+01 9.2201704165017858e+01 0 0 0
1975 2 -2.0086972318581639e-01 7.7128029615376846e+01 7.6806987220915374e+01 8.7940002826972830e+01 1 1 0
1967 1 8.3360577952330650e-02 7.7683676949889218e+01 7.6770215752465234e+01 9.3072852733703400e+01 1 1 0
3820 1 7.9296564015858328e-02 7.9214589015477102e+01 7.8271273082021580e+01 9.5803379322663986e+01 0 0 0
1988 1 7.6134038001737139e-02 7.6583424168111662e+01 7.7689387208807389e+01 8.7656908567903258e+01 1 1 0
5441 1 5.5404818219961419e-02 8.9181712107649304e+01 7.9370482496402957e+01 8.6740782389223384e+01 0 1 0
565 3 -1.4319830090509333e-01 8.3359634551013357e+01 8.0406482400263940e+01 9.4117535084955705e+01 0 0 0
1739 2 1.6385598895668671e-01 8.3382610966652706e+01 8.0637321854562998e+01 8.9288486566989405e+01 0 0 0
5442 1 6.3420812481525174e-02 8.7557301859633554e+01 7.9097255161618932e+01 8.6758190658211760e+01 0 1 0
1707 1 1.2121813659892039e-01 8.3784234464988387e+01 7.8592764159916641e+01 8.8983734983377275e+01 0 0 0
1706 2 -1.8964840328412702e-01 8.4087268600175321e+01 7.9541433484633203e+01 8.8587100705863662e+01 0 0 0
564 2 1.1635757029184196e-01 8.4085990113858500e+01 8.0709612825300908e+01 9.5008754196202617e+01 0 0 0
434 1 6.6515585805227040e-02 8.5730333506899029e+01 7.8197366426576863e+01 9.4694309594320870e+01 0 0 0
1708 2 -1.3460630725184289e-01 8.5638560356517402e+01 7.9826595872432335e+01 8.8968409780052241e+01 0 0 0