# LAMMPS data file written by Ovito Basic 3.0.0-dev791
159 atoms
4 atom types
0.0 21.1343803406 xlo xhi
0.0 26.6469993591 ylo yhi
0.0 19.1564006805 zlo zhi

Atoms  # charge

1 1 0.0 4.700755119 20.379341125 8.544576645
2 1 0.0 7.157292366 26.551275253 8.609400749
3 1 0.0 8.431741714 6.368462086 8.57509613
4 1 0.0 9.204937935 2.862260818 9.692115784
5 1 0.0 10.675216675 26.006931305 9.655023575
6 1 0.0 12.783424377 23.152099609 8.569416046
7 1 0.0 14.34331131 26.443267822 9.692414284
8 1 0.0 4.709357738 23.936548233 9.637651443
9 1 0.0 11.969996452 5.506346226 9.501728058
10 1 0.0 15.267065048 7.055996895 8.544591904
11 1 0.0 2.244108438 14.206432343 8.610752106
12 1 0.0 12.811205864 13.228326797 8.609146118
13 1 0.0 17.724468231 0.883134365 8.610775948
14 1 0.0 0.967656493 7.743304253 8.57687664
15 1 0.0 11.536057472 19.692195892 8.575244904
16 1 0.0 19.000259399 21.066761017 8.576582909
17 1 0.0 0.194703534 11.249619484 9.692986488
18 1 0.0 10.762824059 16.185832977 9.691665649
19 1 0.0 19.773183823 24.572982788 9.693587303
20 1 0.0 19.86059761 14.752510071 9.655090332
21 1 0.0 9.293113708 12.683438301 9.654052734
22 1 0.0 0.107879959 1.429054856 9.65562439
23 1 0.0 17.752685547 17.607496262 8.569197655
24 1 0.0 7.184859276 9.828586578 8.569019318
25 1 0.0 2.215691805 4.284192085 8.569634438
26 1 0.0 16.191740036 14.316690445 9.691804886
27 1 0.0 5.625281334 13.119338989 9.691957474
28 1 0.0 3.776803255 0.992973626 9.692061424
29 1 0.0 4.691310883 16.822282791 9.637591362
30 1 0.0 15.258956909 10.613405228 9.636914253
31 1 0.0 15.277114868 3.498974323 9.637605667
32 1 0.0 18.563745499 8.606910706 9.501021385
33 1 0.0 7.997804165 18.829767227 9.501644135
34 1 0.0 1.4040097 21.929897308 9.501581192
35 1 0.0 4.700653553 7.055950165 9.620584488
36 1 0.0 15.268044472 20.37937355 9.620465279
37 2 0.0 12.301271439 2.218091011 8.656489372
38 2 0.0 18.234144211 11.895708084 8.655055046
39 2 0.0 7.666711807 15.541420937 8.656124115
40 2 0.0 1.734021544 25.218837738 8.655849457
41 3 0.0 16.240119934 23.447399139 9.156066895
42 3 0.0 14.29556179 17.311677933 9.154669762
43 3 0.0 3.727832794 10.123238564 9.155296326
44 3 0.0 5.672421455 3.987778902 9.15489769
45 4 0.0 4.700582027 20.379369736 6.873228073
46 4 0.0 4.701210499 7.055983543 11.28935051
47 4 0.0 7.145747662 26.526371002 6.935512066
48 4 0.0 8.438057899 6.307413578 6.90447998
49 4 0.0 9.203000069 2.853137255 11.371376991
50 4 0.0 10.701051712 26.016424179 11.332707405
51 4 0.0 12.739934921 23.231719971 6.898830891
52 4 0.0 14.301103592 26.414934158 11.368711472
53 4 0.0 12.30576992 2.217149973 6.944931984
54 4 0.0 4.72066021 23.909854889 11.316386223
55 4 0.0 11.985573769 5.584669113 11.177898407
56 4 0.0 16.380647659 23.643693924 10.97580719
57 4 0.0 15.680588722 5.237652779 9.11693573
58 4 0.0 16.802814484 2.556061268 9.133051872
59 4 0.0 5.530049801 0.807775259 9.15157032
60 4 0.0 16.941585541 21.333393097 9.022917747
61 4 0.0 19.46591568 1.61070621 9.145806313
62 4 0.0 21.069566727 26.059997559 9.250813484
63 4 0.0 18.961652756 22.954641342 9.157828331
64 4 0.0 3.950446844 5.308247089 9.007561684
65 4 0.0 0.822545767 3.101788759 9.179820061
66 4 0.0 0.382707417 23.697755814 9.13646698
67 4 0.0 20.930587769 21.069763184 9.019134521
68 4 0.0 1.920559406 0.675805628 9.062052727
69 4 0.0 2.757900238 23.456596375 9.14118576
70 4 0.0 2.780554056 20.817630768 8.955190659
71 4 0.0 1.307347178 5.910206318 8.976285934
72 4 0.0 3.594502687 2.839382648 9.070727348
73 4 0.0 3.651964426 25.655776978 9.250794411
74 4 0.0 7.92459774 1.678813457 9.106472015
75 4 0.0 15.266927719 7.055819988 6.87336874
76 4 0.0 15.26792717 20.378826141 11.28942585
77 4 0.0 2.255905151 14.229511261 6.936948299
78 4 0.0 12.823154449 13.203681946 6.935370445
79 4 0.0 17.7129879 0.906274796 6.936870098
80 4 0.0 0.960712075 7.804030895 6.906301022
81 4 0.0 11.529910088 19.631349564 6.904488564
82 4 0.0 19.007301331 21.127729416 6.905826569
83 4 0.0 0.194680035 11.258753777 11.372134209
84 4 0.0 10.764567375 16.176309586 11.370923042
85 4 0.0 19.772928238 24.581922531 11.372977257
86 4 0.0 19.834369659 14.742160797 11.332647324
87 4 0.0 9.266839027 12.692863464 11.331588745
88 4 0.0 0.133992687 1.419035554 11.333285332
89 4 0.0 17.797035217 17.528503418 6.898663044
90 4 0.0 7.228239059 9.908031464 6.898594856
91 4 0.0 2.171439409 4.205266476 6.899163246
92 4 0.0 16.232816696 14.345460892 11.367983818
93 4 0.0 5.667993069 13.090640068 11.368107796
94 4 0.0 3.736338615 1.021761537 11.368339539
95 4 0.0 18.230155945 11.898440361 6.94350481
96 4 0.0 7.661676884 15.540486336 6.944527626
97 4 0.0 1.73775804 25.22155571 6.944272995
98 4 0.0 4.678030014 16.849088669 11.316206932
99 4 0.0 15.247694016 10.586842537 11.315447807
100 4 0.0 15.290391922 3.525734425 11.316210747
101 4 0.0 18.546749115 8.530622482 11.177203178
102 4 0.0 7.982002735 18.908002853 11.177892685
103 4 0.0 1.420646191 21.853374481 11.177966118
104 4 0.0 14.154807091 17.114149094 10.974407196
105 4 0.0 3.587596178 10.320262909 10.975245476
106 4 0.0 5.81357336 3.790809631 10.974723816
107 4 0.0 14.854420662 8.874562263 9.11720562
108 4 0.0 4.287469387 18.560901642 9.116957664
109 4 0.0 5.113611698 22.197780609 9.117465973
110 4 0.0 13.732723236 11.556307793 9.133702278
111 4 0.0 3.165662766 15.879160881 9.133217812
112 4 0.0 6.235652447 24.879322052 9.134268761
113 4 0.0 3.871195316 13.303911209 9.154307365
114 4 0.0 14.438248634 14.131515503 9.15210247
115 4 0.0 16.097229004 26.627662659 9.153951645
116 4 0.0 13.594425201 19.425325394 9.022445679
117 4 0.0 3.026674747 8.010025024 9.023152351
118 4 0.0 6.373808861 6.101862431 9.022436142
119 4 0.0 11.069504738 12.501646042 9.144478798
120 4 0.0 0.50261426 14.933966637 9.145535469
121 4 0.0 8.898963928 25.824764252 9.144971848
122 4 0.0 9.465616226 14.699606895 9.249845505
123 4 0.0 20.033027649 12.736632347 9.249773979
124 4 0.0 10.502383232 1.376110435 9.250629425
125 4 0.0 11.574298859 17.804237366 9.155867577
126 4 0.0 1.006365895 9.631171227 9.157686234
127 4 0.0 8.393522263 4.480512619 9.155857086
128 4 0.0 5.45004797 8.804088593 9.007185936
129 4 0.0 16.017765045 18.631584167 9.006916046
130 4 0.0 14.518081665 22.127414703 9.007537842
131 4 0.0 8.578458786 11.010655403 9.178409576
132 4 0.0 19.145929337 16.42527771 9.179533958
133 4 0.0 11.38999176 24.334218979 9.179184914
134 4 0.0 9.018498421 17.061855316 9.136685371
135 4 0.0 19.585206985 10.374562263 9.135709763
136 4 0.0 10.949298859 3.73836422 9.13712883
137 4 0.0 9.605521202 19.689208984 9.017425537
138 4 0.0 20.171768188 7.746640682 9.019138336
139 4 0.0 10.362290382 6.365635395 9.017415047
140 4 0.0 7.480674267 13.436860085 9.060137749
141 4 0.0 18.047861099 13.999391556 9.061591148
142 4 0.0 12.487604141 0.113534279 9.06089592
143 4 0.0 6.643352509 17.302742004 9.143835068
144 4 0.0 17.210138321 10.133529663 9.140195847
145 4 0.0 13.324674606 3.979461432 9.144057274
146 4 0.0 6.620772362 19.941232681 8.954825401
147 4 0.0 17.187208176 7.494616985 8.954695702
148 4 0.0 13.347036362 6.61793232 8.955066681
149 4 0.0 8.092580795 8.201882362 8.974534988
150 4 0.0 18.660778046 19.233560562 8.975845337
151 4 0.0 11.875367165 21.52545929 8.974996567
152 4 0.0 5.806735039 11.273068428 9.070888519
153 4 0.0 16.374052048 16.162771225 9.070280075
154 4 0.0 14.161887169 24.596567154 9.071411133
155 4 0.0 5.749170303 15.103505135 9.250907898
156 4 0.0 16.316394806 12.332653999 9.250139236
157 4 0.0 14.219223976 1.780305743 9.25079155
158 4 0.0 1.476251483 12.432704926 9.109158516
159 4 0.0 12.043330193 15.002494812 9.106096268
