# LAMMPS data file written by Ovito Basic 3.0.0-dev791
152 atoms
2 atom types
0.0 8.9810314178 xlo xhi
0.0 8.9810314178 ylo yhi
0.0 22.720413208 zlo zhi

Atoms  # charge

1 1 0.0 0.0 0.0 22.010398865
2 1 0.0 0.0 0.0 19.170345306
3 1 0.0 0.0 0.0 16.330295563
4 1 0.0 0.0 0.0 13.490243912
5 1 0.0 6.28672123 0.898103118 22.010398865
6 1 0.0 6.28672123 0.898103118 19.170345306
7 1 0.0 6.28672123 0.898103118 16.330295563
8 1 0.0 6.28672123 0.898103118 13.490243912
9 1 0.0 7.184824944 3.592412472 22.010398865
10 1 0.0 7.184824944 3.592412472 19.170345306
11 1 0.0 7.184824944 3.592412472 16.330295563
12 1 0.0 7.184824944 3.592412472 13.490243912
13 1 0.0 8.08292675 6.28672123 22.010398865
14 1 0.0 8.08292675 6.28672123 19.170345306
15 1 0.0 8.08292675 6.28672123 16.330295563
16 1 0.0 8.08292675 6.28672123 13.490243912
17 1 0.0 0.898103118 2.694309235 22.010398865
18 1 0.0 0.898103118 2.694309235 19.170345306
19 1 0.0 0.898103118 2.694309235 16.330295563
20 1 0.0 0.898103118 2.694309235 13.490243912
21 1 0.0 1.796206236 5.388618469 22.010398865
22 1 0.0 1.796206236 5.388618469 19.170345306
23 1 0.0 1.796206236 5.388618469 16.330295563
24 1 0.0 1.796206236 5.388618469 13.490243912
25 1 0.0 2.694309235 8.08292675 22.010398865
26 1 0.0 2.694309235 8.08292675 19.170345306
27 1 0.0 2.694309235 8.08292675 16.330295563
28 1 0.0 2.694309235 8.08292675 13.490243912
29 1 0.0 3.592412472 1.796206236 22.010398865
30 1 0.0 3.592412472 1.796206236 19.170345306
31 1 0.0 3.592412472 1.796206236 16.330295563
32 1 0.0 3.592412472 1.796206236 13.490243912
33 1 0.0 4.490515232 4.490515232 22.010398865
34 1 0.0 4.490515232 4.490515232 19.170345306
35 1 0.0 4.490515232 4.490515232 16.330295563
36 1 0.0 4.490515232 4.490515232 13.490243912
37 1 0.0 5.388618469 7.184824944 22.010398865
38 1 0.0 5.388618469 7.184824944 19.170345306
39 1 0.0 5.388618469 7.184824944 16.330295563
40 1 0.0 5.388618469 7.184824944 13.490243912
41 1 0.0 1.796206236 0.898103118 20.590373993
42 1 0.0 1.796206236 0.898103118 17.750322342
43 1 0.0 1.796206236 0.898103118 14.910269737
44 1 0.0 1.796206236 0.898103118 12.070218086
45 1 0.0 8.08292675 1.796206236 20.590373993
46 1 0.0 8.08292675 1.796206236 17.750322342
47 1 0.0 8.08292675 1.796206236 14.910269737
48 1 0.0 8.08292675 1.796206236 12.070218086
49 1 0.0 0.0 4.490515232 20.590373993
50 1 0.0 0.0 4.490515232 17.750322342
51 1 0.0 0.0 4.490515232 14.910269737
52 1 0.0 0.0 4.490515232 12.070218086
53 1 0.0 0.898103297 7.184824944 20.590373993
54 1 0.0 0.898103297 7.184824944 17.750322342
55 1 0.0 0.898103297 7.184824944 14.910269737
56 1 0.0 0.898103297 7.184824944 12.070218086
57 1 0.0 2.694309235 3.592412472 20.590373993
58 1 0.0 2.694309235 3.592412472 17.750322342
59 1 0.0 2.694309235 3.592412472 14.910269737
60 1 0.0 2.694309235 3.592412472 12.070218086
61 1 0.0 3.592412472 6.286721706 20.590373993
62 1 0.0 3.592412472 6.286721706 17.750322342
63 1 0.0 3.592412472 6.286721706 14.910269737
64 1 0.0 3.592412472 6.286721706 12.070218086
65 1 0.0 4.490515232 0.0 20.590373993
66 1 0.0 4.490515232 0.0 17.750322342
67 1 0.0 4.490515232 0.0 14.910269737
68 1 0.0 4.490515232 0.0 12.070218086
69 1 0.0 5.388618469 2.694309235 20.590373993
70 1 0.0 5.388618469 2.694309235 17.750322342
71 1 0.0 5.388618469 2.694309235 14.910269737
72 1 0.0 5.388618469 2.694309235 12.070218086
73 1 0.0 6.28672123 5.388618469 20.590373993
74 1 0.0 6.28672123 5.388618469 17.750322342
75 1 0.0 6.28672123 5.388618469 14.910269737
76 1 0.0 6.28672123 5.388618469 12.070218086
77 1 0.0 7.184824944 8.082927704 20.590373993
78 1 0.0 7.184824944 8.082927704 17.750322342
79 1 0.0 7.184824944 8.082927704 14.910269737
80 1 0.0 7.184824944 8.082927704 12.070218086
81 2 0.0 8.972117424 8.972117424 0.710012853
82 2 0.0 8.972117424 8.972117424 3.550064325
83 2 0.0 8.972117424 8.972117424 6.390115738
84 2 0.0 8.972117424 8.972117424 9.230166435
85 2 0.0 8.972117424 3.061575413 0.710012853
86 2 0.0 8.972117424 3.061575413 3.550064325
87 2 0.0 8.972117424 3.061575413 6.390115738
88 2 0.0 8.972117424 3.061575413 9.230166435
89 2 0.0 8.972117424 5.901627064 0.710012853
90 2 0.0 8.972117424 5.901627064 3.550064325
91 2 0.0 8.972117424 5.901627064 6.390115738
92 2 0.0 8.972117424 5.901627064 9.230166435
93 2 0.0 3.061575413 8.972117424 0.710012853
94 2 0.0 3.061575413 8.972117424 3.550064325
95 2 0.0 3.061575413 8.972117424 6.390115738
96 2 0.0 3.061575413 8.972117424 9.230166435
97 2 0.0 3.061575413 3.061575413 0.710012853
98 2 0.0 3.061575413 3.061575413 3.550064325
99 2 0.0 3.061575413 3.061575413 6.390115738
100 2 0.0 3.061575413 3.061575413 9.230166435
101 2 0.0 3.061575413 5.901627064 0.710012853
102 2 0.0 3.061575413 5.901627064 3.550064325
103 2 0.0 3.061575413 5.901627064 6.390115738
104 2 0.0 3.061575413 5.901627064 9.230166435
105 2 0.0 5.901627064 8.972117424 0.710012853
106 2 0.0 5.901627064 8.972117424 3.550064325
107 2 0.0 5.901627064 8.972117424 6.390115738
108 2 0.0 5.901627064 8.972117424 9.230166435
109 2 0.0 5.901627064 3.061575413 0.710012853
110 2 0.0 5.901627064 3.061575413 3.550064325
111 2 0.0 5.901627064 3.061575413 6.390115738
112 2 0.0 5.901627064 3.061575413 9.230166435
113 2 0.0 5.901627064 5.901627064 0.710012853
114 2 0.0 5.901627064 5.901627064 3.550064325
115 2 0.0 5.901627064 5.901627064 6.390115738
116 2 0.0 5.901627064 5.901627064 9.230166435
117 2 0.0 1.641549706 1.641549706 2.1300385
118 2 0.0 1.641549706 1.641549706 4.970089912
119 2 0.0 1.641549706 1.641549706 7.810141563
120 2 0.0 1.641549706 1.641549706 10.650194168
121 2 0.0 1.641549706 4.481601238 2.1300385
122 2 0.0 1.641549706 4.481601238 4.970089912
123 2 0.0 1.641549706 4.481601238 7.810141563
124 2 0.0 1.641549706 4.481601238 10.650194168
125 2 0.0 1.641549706 7.321653366 2.1300385
126 2 0.0 1.641549706 7.321653366 4.970089912
127 2 0.0 1.641549706 7.321653366 7.810141563
128 2 0.0 1.641549706 7.321653366 10.650194168
129 2 0.0 4.481601238 1.641549706 2.1300385
130 2 0.0 4.481601238 1.641549706 4.970089912
131 2 0.0 4.481601238 1.641549706 7.810141563
132 2 0.0 4.481601238 1.641549706 10.650194168
133 2 0.0 4.481601238 4.481601238 2.1300385
134 2 0.0 4.481601238 4.481601238 4.970089912
135 2 0.0 4.481601238 4.481601238 7.810141563
136 2 0.0 4.481601238 4.481601238 10.650194168
137 2 0.0 4.481601238 7.321653366 2.1300385
138 2 0.0 4.481601238 7.321653366 4.970089912
139 2 0.0 4.481601238 7.321653366 7.810141563
140 2 0.0 4.481601238 7.321653366 10.650194168
141 2 0.0 7.321653366 1.641549706 2.1300385
142 2 0.0 7.321653366 1.641549706 4.970089912
143 2 0.0 7.321653366 1.641549706 7.810141563
144 2 0.0 7.321653366 1.641549706 10.650194168
145 2 0.0 7.321653366 4.481601238 2.1300385
146 2 0.0 7.321653366 4.481601238 4.970089912
147 2 0.0 7.321653366 4.481601238 7.810141563
148 2 0.0 7.321653366 4.481601238 10.650194168
149 2 0.0 7.321653366 7.321653366 2.1300385
150 2 0.0 7.321653366 7.321653366 4.970089912
151 2 0.0 7.321653366 7.321653366 7.810141563
152 2 0.0 7.321653366 7.321653366 10.650194168
