# LAMMPS data file written by Ovito Basic 3.0.0-dev791
649 atoms
3 atom types
0.0 18.62 xlo xhi
0.0 18.0 ylo yhi
0.0 18.62 zlo zhi

Atoms  # charge

1 1 0.0 9.31 9.0 9.31
2 2 0.0 -0.27885 -0.76332 -0.52778
3 2 0.0 0.96789 -0.03819 -0.02641
4 2 0.0 -0.27885 -0.76332 2.38159
5 2 0.0 0.96789 -0.03819 2.88296
6 2 0.0 -0.27885 -0.76332 5.29096
7 2 0.0 0.96789 -0.03819 5.79233
8 2 0.0 -0.27885 -0.76332 8.20033
9 2 0.0 0.96789 -0.03819 8.7017
10 2 0.0 -0.27885 -0.76332 11.1097
11 2 0.0 0.96789 -0.03819 11.6111
12 2 0.0 -0.27885 -0.76332 14.0191
13 2 0.0 0.96789 -0.03819 14.5204
14 2 0.0 -0.27885 2.04918 -0.52778
15 2 0.0 0.96789 2.77431 -0.02641
16 2 0.0 -0.27885 2.04918 2.38159
17 2 0.0 0.96789 2.77431 2.88296
18 2 0.0 -0.27885 2.04918 5.29096
19 2 0.0 0.96789 2.77431 5.79233
20 2 0.0 -0.27885 2.04918 8.20033
21 2 0.0 0.96789 2.77431 8.7017
22 2 0.0 -0.27885 2.04918 11.1097
23 2 0.0 0.96789 2.77431 11.6111
24 2 0.0 -0.27885 2.04918 14.0191
25 2 0.0 0.96789 2.77431 14.5204
26 2 0.0 -0.27885 4.86168 -0.52778
27 2 0.0 0.96789 5.58681 -0.02641
28 2 0.0 -0.27885 4.86168 2.38159
29 2 0.0 0.96789 5.58681 2.88296
30 2 0.0 -0.27885 4.86168 5.29096
31 2 0.0 0.96789 5.58681 5.79233
32 2 0.0 -0.27885 4.86168 8.20033
33 2 0.0 0.96789 5.58681 8.7017
34 2 0.0 -0.27885 4.86168 11.1097
35 2 0.0 0.96789 5.58681 11.6111
36 2 0.0 -0.27885 4.86168 14.0191
37 2 0.0 0.96789 5.58681 14.5204
38 2 0.0 -0.27885 7.67418 -0.52778
39 2 0.0 0.96789 8.39931 -0.02641
40 2 0.0 -0.27885 7.67418 2.38159
41 2 0.0 0.96789 8.39931 2.88296
42 2 0.0 -0.27885 7.67418 5.29096
43 2 0.0 0.96789 8.39931 5.79233
44 2 0.0 -0.27885 7.67418 8.20033
45 2 0.0 0.96789 8.39931 8.7017
46 2 0.0 -0.27885 7.67418 11.1097
47 2 0.0 0.96789 8.39931 11.6111
48 2 0.0 -0.27885 7.67418 14.0191
49 2 0.0 0.96789 8.39931 14.5204
50 2 0.0 -0.27885 10.4867 -0.52778
51 2 0.0 0.96789 11.2118 -0.02641
52 2 0.0 -0.27885 10.4867 2.38159
53 2 0.0 0.96789 11.2118 2.88296
54 2 0.0 -0.27885 10.4867 5.29096
55 2 0.0 0.96789 11.2118 5.79233
56 2 0.0 -0.27885 10.4867 8.20033
57 2 0.0 0.96789 11.2118 8.7017
58 2 0.0 -0.27885 10.4867 11.1097
59 2 0.0 0.96789 11.2118 11.6111
60 2 0.0 -0.27885 10.4867 14.0191
61 2 0.0 0.96789 11.2118 14.5204
62 2 0.0 -0.27885 13.2992 -0.52778
63 2 0.0 0.96789 14.0243 -0.02641
64 2 0.0 -0.27885 13.2992 2.38159
65 2 0.0 0.96789 14.0243 2.88296
66 2 0.0 -0.27885 13.2992 5.29096
67 2 0.0 0.96789 14.0243 5.79233
68 2 0.0 -0.27885 13.2992 8.20033
69 2 0.0 0.96789 14.0243 8.7017
70 2 0.0 -0.27885 13.2992 11.1097
71 2 0.0 0.96789 14.0243 11.6111
72 2 0.0 -0.27885 13.2992 14.0191
73 2 0.0 0.96789 14.0243 14.5204
74 2 0.0 2.63052 -0.76332 -0.52778
75 2 0.0 3.87726 -0.03819 -0.02641
76 2 0.0 2.63052 -0.76332 2.38159
77 2 0.0 3.87726 -0.03819 2.88296
78 2 0.0 2.63052 -0.76332 5.29096
79 2 0.0 3.87726 -0.03819 5.79233
80 2 0.0 2.63052 -0.76332 8.20033
81 2 0.0 3.87726 -0.03819 8.7017
82 2 0.0 2.63052 -0.76332 11.1097
83 2 0.0 3.87726 -0.03819 11.6111
84 2 0.0 2.63052 -0.76332 14.0191
85 2 0.0 3.87726 -0.03819 14.5204
86 2 0.0 2.63052 2.04918 -0.52778
87 2 0.0 3.87726 2.77431 -0.02641
88 2 0.0 2.63052 2.04918 2.38159
89 2 0.0 3.87726 2.77431 2.88296
90 2 0.0 2.63052 2.04918 5.29096
91 2 0.0 3.87726 2.77431 5.79233
92 2 0.0 2.63052 2.04918 8.20033
93 2 0.0 3.87726 2.77431 8.7017
94 2 0.0 2.63052 2.04918 11.1097
95 2 0.0 3.87726 2.77431 11.6111
96 2 0.0 2.63052 2.04918 14.0191
97 2 0.0 3.87726 2.77431 14.5204
98 2 0.0 2.63052 4.86168 -0.52778
99 2 0.0 3.87726 5.58681 -0.02641
100 2 0.0 2.63052 4.86168 2.38159
101 2 0.0 3.87726 5.58681 2.88296
102 2 0.0 2.63052 4.86168 5.29096
103 2 0.0 3.87726 5.58681 5.79233
104 2 0.0 2.63052 4.86168 8.20033
105 2 0.0 3.87726 5.58681 8.7017
106 2 0.0 2.63052 4.86168 11.1097
107 2 0.0 3.87726 5.58681 11.6111
108 2 0.0 2.63052 4.86168 14.0191
109 2 0.0 3.87726 5.58681 14.5204
110 2 0.0 2.63052 7.67418 -0.52778
111 2 0.0 3.87726 8.39931 -0.02641
112 2 0.0 2.63052 7.67418 2.38159
113 2 0.0 3.87726 8.39931 2.88296
114 2 0.0 2.63052 7.67418 5.29096
115 2 0.0 3.87726 8.39931 5.79233
116 2 0.0 2.63052 7.67418 8.20033
117 2 0.0 3.87726 8.39931 8.7017
118 2 0.0 2.63052 7.67418 11.1097
119 2 0.0 3.87726 8.39931 11.6111
120 2 0.0 2.63052 7.67418 14.0191
121 2 0.0 3.87726 8.39931 14.5204
122 2 0.0 2.63052 10.4867 -0.52778
123 2 0.0 3.87726 11.2118 -0.02641
124 2 0.0 2.63052 10.4867 2.38159
125 2 0.0 3.87726 11.2118 2.88296
126 2 0.0 2.63052 10.4867 5.29096
127 2 0.0 3.87726 11.2118 5.79233
128 2 0.0 2.63052 10.4867 8.20033
129 2 0.0 3.87726 11.2118 8.7017
130 2 0.0 2.63052 10.4867 11.1097
131 2 0.0 3.87726 11.2118 11.6111
132 2 0.0 2.63052 10.4867 14.0191
133 2 0.0 3.87726 11.2118 14.5204
134 2 0.0 2.63052 13.2992 -0.52778
135 2 0.0 3.87726 14.0243 -0.02641
136 2 0.0 2.63052 13.2992 2.38159
137 2 0.0 3.87726 14.0243 2.88296
138 2 0.0 2.63052 13.2992 5.29096
139 2 0.0 3.87726 14.0243 5.79233
140 2 0.0 2.63052 13.2992 8.20033
141 2 0.0 3.87726 14.0243 8.7017
142 2 0.0 2.63052 13.2992 11.1097
143 2 0.0 3.87726 14.0243 11.6111
144 2 0.0 2.63052 13.2992 14.0191
145 2 0.0 3.87726 14.0243 14.5204
146 2 0.0 5.53989 -0.76332 -0.52778
147 2 0.0 6.78663 -0.03819 -0.02641
148 2 0.0 5.53989 -0.76332 2.38159
149 2 0.0 6.78663 -0.03819 2.88296
150 2 0.0 5.53989 -0.76332 5.29096
151 2 0.0 6.78663 -0.03819 5.79233
152 2 0.0 5.53989 -0.76332 8.20033
153 2 0.0 6.78663 -0.03819 8.7017
154 2 0.0 5.53989 -0.76332 11.1097
155 2 0.0 6.78663 -0.03819 11.6111
156 2 0.0 5.53989 -0.76332 14.0191
157 2 0.0 6.78663 -0.03819 14.5204
158 2 0.0 5.53989 2.04918 -0.52778
159 2 0.0 6.78663 2.77431 -0.02641
160 2 0.0 5.53989 2.04918 2.38159
161 2 0.0 6.78663 2.77431 2.88296
162 2 0.0 5.53989 2.04918 5.29096
163 2 0.0 6.78663 2.77431 5.79233
164 2 0.0 5.53989 2.04918 8.20033
165 2 0.0 6.78663 2.77431 8.7017
166 2 0.0 5.53989 2.04918 11.1097
167 2 0.0 6.78663 2.77431 11.6111
168 2 0.0 5.53989 2.04918 14.0191
169 2 0.0 6.78663 2.77431 14.5204
170 2 0.0 5.53989 4.86168 -0.52778
171 2 0.0 6.78663 5.58681 -0.02641
172 2 0.0 5.53989 4.86168 2.38159
173 2 0.0 6.78663 5.58681 2.88296
174 2 0.0 5.53989 4.86168 5.29096
175 2 0.0 6.78663 5.58681 5.79233
176 2 0.0 5.53989 4.86168 8.20033
177 2 0.0 6.78663 5.58681 8.7017
178 2 0.0 5.53989 4.86168 11.1097
179 2 0.0 6.78663 5.58681 11.6111
180 2 0.0 5.53989 4.86168 14.0191
181 2 0.0 6.78663 5.58681 14.5204
182 2 0.0 5.53989 7.67418 -0.52778
183 2 0.0 6.78663 8.39931 -0.02641
184 2 0.0 5.53989 7.67418 2.38159
185 2 0.0 6.78663 8.39931 2.88296
186 2 0.0 5.53989 7.67418 5.29096
187 2 0.0 6.78663 8.39931 5.79233
188 2 0.0 5.53989 7.67418 8.20033
189 2 0.0 6.78663 8.39931 8.7017
190 2 0.0 5.53989 7.67418 11.1097
191 2 0.0 6.78663 8.39931 11.6111
192 2 0.0 5.53989 7.67418 14.0191
193 2 0.0 6.78663 8.39931 14.5204
194 2 0.0 5.53989 10.4867 -0.52778
195 2 0.0 6.78663 11.2118 -0.02641
196 2 0.0 5.53989 10.4867 2.38159
197 2 0.0 6.78663 11.2118 2.88296
198 2 0.0 5.53989 10.4867 5.29096
199 2 0.0 6.78663 11.2118 5.79233
200 2 0.0 5.53989 10.4867 8.20033
201 2 0.0 6.78663 11.2118 8.7017
202 2 0.0 5.53989 10.4867 11.1097
203 2 0.0 6.78663 11.2118 11.6111
204 2 0.0 5.53989 10.4867 14.0191
205 2 0.0 6.78663 11.2118 14.5204
206 2 0.0 5.53989 13.2992 -0.52778
207 2 0.0 6.78663 14.0243 -0.02641
208 2 0.0 5.53989 13.2992 2.38159
209 2 0.0 6.78663 14.0243 2.88296
210 2 0.0 5.53989 13.2992 5.29096
211 2 0.0 6.78663 14.0243 5.79233
212 2 0.0 5.53989 13.2992 8.20033
213 2 0.0 6.78663 14.0243 8.7017
214 2 0.0 5.53989 13.2992 11.1097
215 2 0.0 6.78663 14.0243 11.6111
216 2 0.0 5.53989 13.2992 14.0191
217 2 0.0 6.78663 14.0243 14.5204
218 2 0.0 8.44926 -0.76332 -0.52778
219 2 0.0 9.696 -0.03819 -0.02641
220 2 0.0 8.44926 -0.76332 2.38159
221 2 0.0 9.696 -0.03819 2.88296
222 2 0.0 8.44926 -0.76332 5.29096
223 2 0.0 9.696 -0.03819 5.79233
224 2 0.0 8.44926 -0.76332 8.20033
225 2 0.0 9.696 -0.03819 8.7017
226 2 0.0 8.44926 -0.76332 11.1097
227 2 0.0 9.696 -0.03819 11.6111
228 2 0.0 8.44926 -0.76332 14.0191
229 2 0.0 9.696 -0.03819 14.5204
230 2 0.0 8.44926 2.04918 -0.52778
231 2 0.0 9.696 2.77431 -0.02641
232 2 0.0 8.44926 2.04918 2.38159
233 2 0.0 9.696 2.77431 2.88296
234 2 0.0 8.44926 2.04918 5.29096
235 2 0.0 9.696 2.77431 5.79233
236 2 0.0 8.44926 2.04918 8.20033
237 2 0.0 9.696 2.77431 8.7017
238 2 0.0 8.44926 2.04918 11.1097
239 2 0.0 9.696 2.77431 11.6111
240 2 0.0 8.44926 2.04918 14.0191
241 2 0.0 9.696 2.77431 14.5204
242 2 0.0 8.44926 4.86168 -0.52778
243 2 0.0 9.696 5.58681 -0.02641
244 2 0.0 8.44926 4.86168 2.38159
245 2 0.0 9.696 5.58681 2.88296
246 2 0.0 8.44926 4.86168 5.29096
247 2 0.0 9.696 5.58681 5.79233
248 2 0.0 8.44926 4.86168 8.20033
249 2 0.0 9.696 5.58681 8.7017
250 2 0.0 8.44926 4.86168 11.1097
251 2 0.0 9.696 5.58681 11.6111
252 2 0.0 8.44926 4.86168 14.0191
253 2 0.0 9.696 5.58681 14.5204
254 2 0.0 8.44926 7.67418 -0.52778
255 2 0.0 9.696 8.39931 -0.02641
256 2 0.0 8.44926 7.67418 2.38159
257 2 0.0 9.696 8.39931 2.88296
258 2 0.0 8.44926 7.67418 5.29096
259 2 0.0 9.696 8.39931 5.79233
260 2 0.0 8.44926 7.67418 8.20033
261 2 0.0 9.696 8.39931 8.7017
262 2 0.0 8.44926 7.67418 11.1097
263 2 0.0 9.696 8.39931 11.6111
264 2 0.0 8.44926 7.67418 14.0191
265 2 0.0 9.696 8.39931 14.5204
266 2 0.0 8.44926 10.4867 -0.52778
267 2 0.0 9.696 11.2118 -0.02641
268 2 0.0 8.44926 10.4867 2.38159
269 2 0.0 9.696 11.2118 2.88296
270 2 0.0 8.44926 10.4867 5.29096
271 2 0.0 9.696 11.2118 5.79233
272 2 0.0 8.44926 10.4867 8.20033
273 2 0.0 9.696 11.2118 8.7017
274 2 0.0 8.44926 10.4867 11.1097
275 2 0.0 9.696 11.2118 11.6111
276 2 0.0 8.44926 10.4867 14.0191
277 2 0.0 9.696 11.2118 14.5204
278 2 0.0 8.44926 13.2992 -0.52778
279 2 0.0 9.696 14.0243 -0.02641
280 2 0.0 8.44926 13.2992 2.38159
281 2 0.0 9.696 14.0243 2.88296
282 2 0.0 8.44926 13.2992 5.29096
283 2 0.0 9.696 14.0243 5.79233
284 2 0.0 8.44926 13.2992 8.20033
285 2 0.0 9.696 14.0243 8.7017
286 2 0.0 8.44926 13.2992 11.1097
287 2 0.0 9.696 14.0243 11.6111
288 2 0.0 8.44926 13.2992 14.0191
289 2 0.0 9.696 14.0243 14.5204
290 2 0.0 11.3586 -0.76332 -0.52778
291 2 0.0 12.6054 -0.03819 -0.02641
292 2 0.0 11.3586 -0.76332 2.38159
293 2 0.0 12.6054 -0.03819 2.88296
294 2 0.0 11.3586 -0.76332 5.29096
295 2 0.0 12.6054 -0.03819 5.79233
296 2 0.0 11.3586 -0.76332 8.20033
297 2 0.0 12.6054 -0.03819 8.7017
298 2 0.0 11.3586 -0.76332 11.1097
299 2 0.0 12.6054 -0.03819 11.6111
300 2 0.0 11.3586 -0.76332 14.0191
301 2 0.0 12.6054 -0.03819 14.5204
302 2 0.0 11.3586 2.04918 -0.52778
303 2 0.0 12.6054 2.77431 -0.02641
304 2 0.0 11.3586 2.04918 2.38159
305 2 0.0 12.6054 2.77431 2.88296
306 2 0.0 11.3586 2.04918 5.29096
307 2 0.0 12.6054 2.77431 5.79233
308 2 0.0 11.3586 2.04918 8.20033
309 2 0.0 12.6054 2.77431 8.7017
310 2 0.0 11.3586 2.04918 11.1097
311 2 0.0 12.6054 2.77431 11.6111
312 2 0.0 11.3586 2.04918 14.0191
313 2 0.0 12.6054 2.77431 14.5204
314 2 0.0 11.3586 4.86168 -0.52778
315 2 0.0 12.6054 5.58681 -0.02641
316 2 0.0 11.3586 4.86168 2.38159
317 2 0.0 12.6054 5.58681 2.88296
318 2 0.0 11.3586 4.86168 5.29096
319 2 0.0 12.6054 5.58681 5.79233
320 2 0.0 11.3586 4.86168 8.20033
321 2 0.0 12.6054 5.58681 8.7017
322 2 0.0 11.3586 4.86168 11.1097
323 2 0.0 12.6054 5.58681 11.6111
324 2 0.0 11.3586 4.86168 14.0191
325 2 0.0 12.6054 5.58681 14.5204
326 2 0.0 11.3586 7.67418 -0.52778
327 2 0.0 12.6054 8.39931 -0.02641
328 2 0.0 11.3586 7.67418 2.38159
329 2 0.0 12.6054 8.39931 2.88296
330 2 0.0 11.3586 7.67418 5.29096
331 2 0.0 12.6054 8.39931 5.79233
332 2 0.0 11.3586 7.67418 8.20033
333 2 0.0 12.6054 8.39931 8.7017
334 2 0.0 11.3586 7.67418 11.1097
335 2 0.0 12.6054 8.39931 11.6111
336 2 0.0 11.3586 7.67418 14.0191
337 2 0.0 12.6054 8.39931 14.5204
338 2 0.0 11.3586 10.4867 -0.52778
339 2 0.0 12.6054 11.2118 -0.02641
340 2 0.0 11.3586 10.4867 2.38159
341 2 0.0 12.6054 11.2118 2.88296
342 2 0.0 11.3586 10.4867 5.29096
343 2 0.0 12.6054 11.2118 5.79233
344 2 0.0 11.3586 10.4867 8.20033
345 2 0.0 12.6054 11.2118 8.7017
346 2 0.0 11.3586 10.4867 11.1097
347 2 0.0 12.6054 11.2118 11.6111
348 2 0.0 11.3586 10.4867 14.0191
349 2 0.0 12.6054 11.2118 14.5204
350 2 0.0 11.3586 13.2992 -0.52778
351 2 0.0 12.6054 14.0243 -0.02641
352 2 0.0 11.3586 13.2992 2.38159
353 2 0.0 12.6054 14.0243 2.88296
354 2 0.0 11.3586 13.2992 5.29096
355 2 0.0 12.6054 14.0243 5.79233
356 2 0.0 11.3586 13.2992 8.20033
357 2 0.0 12.6054 14.0243 8.7017
358 2 0.0 11.3586 13.2992 11.1097
359 2 0.0 12.6054 14.0243 11.6111
360 2 0.0 11.3586 13.2992 14.0191
361 2 0.0 12.6054 14.0243 14.5204
362 2 0.0 14.268 -0.76332 -0.52778
363 2 0.0 15.5147 -0.03819 -0.02641
364 2 0.0 14.268 -0.76332 2.38159
365 2 0.0 15.5147 -0.03819 2.88296
366 2 0.0 14.268 -0.76332 5.29096
367 2 0.0 15.5147 -0.03819 5.79233
368 2 0.0 14.268 -0.76332 8.20033
369 2 0.0 15.5147 -0.03819 8.7017
370 2 0.0 14.268 -0.76332 11.1097
371 2 0.0 15.5147 -0.03819 11.6111
372 2 0.0 14.268 -0.76332 14.0191
373 2 0.0 15.5147 -0.03819 14.5204
374 2 0.0 14.268 2.04918 -0.52778
375 2 0.0 15.5147 2.77431 -0.02641
376 2 0.0 14.268 2.04918 2.38159
377 2 0.0 15.5147 2.77431 2.88296
378 2 0.0 14.268 2.04918 5.29096
379 2 0.0 15.5147 2.77431 5.79233
380 2 0.0 14.268 2.04918 8.20033
381 2 0.0 15.5147 2.77431 8.7017
382 2 0.0 14.268 2.04918 11.1097
383 2 0.0 15.5147 2.77431 11.6111
384 2 0.0 14.268 2.04918 14.0191
385 2 0.0 15.5147 2.77431 14.5204
386 2 0.0 14.268 4.86168 -0.52778
387 2 0.0 15.5147 5.58681 -0.02641
388 2 0.0 14.268 4.86168 2.38159
389 2 0.0 15.5147 5.58681 2.88296
390 2 0.0 14.268 4.86168 5.29096
391 2 0.0 15.5147 5.58681 5.79233
392 2 0.0 14.268 4.86168 8.20033
393 2 0.0 15.5147 5.58681 8.7017
394 2 0.0 14.268 4.86168 11.1097
395 2 0.0 15.5147 5.58681 11.6111
396 2 0.0 14.268 4.86168 14.0191
397 2 0.0 15.5147 5.58681 14.5204
398 2 0.0 14.268 7.67418 -0.52778
399 2 0.0 15.5147 8.39931 -0.02641
400 2 0.0 14.268 7.67418 2.38159
401 2 0.0 15.5147 8.39931 2.88296
402 2 0.0 14.268 7.67418 5.29096
403 2 0.0 15.5147 8.39931 5.79233
404 2 0.0 14.268 7.67418 8.20033
405 2 0.0 15.5147 8.39931 8.7017
406 2 0.0 14.268 7.67418 11.1097
407 2 0.0 15.5147 8.39931 11.6111
408 2 0.0 14.268 7.67418 14.0191
409 2 0.0 15.5147 8.39931 14.5204
410 2 0.0 14.268 10.4867 -0.52778
411 2 0.0 15.5147 11.2118 -0.02641
412 2 0.0 14.268 10.4867 2.38159
413 2 0.0 15.5147 11.2118 2.88296
414 2 0.0 14.268 10.4867 5.29096
415 2 0.0 15.5147 11.2118 5.79233
416 2 0.0 14.268 10.4867 8.20033
417 2 0.0 15.5147 11.2118 8.7017
418 2 0.0 14.268 10.4867 11.1097
419 2 0.0 15.5147 11.2118 11.6111
420 2 0.0 14.268 10.4867 14.0191
421 2 0.0 15.5147 11.2118 14.5204
422 2 0.0 14.268 13.2992 -0.52778
423 2 0.0 15.5147 14.0243 -0.02641
424 2 0.0 14.268 13.2992 2.38159
425 2 0.0 15.5147 14.0243 2.88296
426 2 0.0 14.268 13.2992 5.29096
427 2 0.0 15.5147 14.0243 5.79233
428 2 0.0 14.268 13.2992 8.20033
429 2 0.0 15.5147 14.0243 8.7017
430 2 0.0 14.268 13.2992 11.1097
431 2 0.0 15.5147 14.0243 11.6111
432 2 0.0 14.268 13.2992 14.0191
433 2 0.0 15.5147 14.0243 14.5204
434 3 0.0 0.0 0.0 0.0
435 3 0.0 0.0 0.0 2.90937
436 3 0.0 0.0 0.0 5.81874
437 3 0.0 0.0 0.0 8.72811
438 3 0.0 0.0 0.0 11.6375
439 3 0.0 0.0 0.0 14.5468
440 3 0.0 0.0 2.8125 0.0
441 3 0.0 0.0 2.8125 2.90937
442 3 0.0 0.0 2.8125 5.81874
443 3 0.0 0.0 2.8125 8.72811
444 3 0.0 0.0 2.8125 11.6375
445 3 0.0 0.0 2.8125 14.5468
446 3 0.0 0.0 5.625 0.0
447 3 0.0 0.0 5.625 2.90937
448 3 0.0 0.0 5.625 5.81874
449 3 0.0 0.0 5.625 8.72811
450 3 0.0 0.0 5.625 11.6375
451 3 0.0 0.0 5.625 14.5468
452 3 0.0 0.0 8.4375 0.0
453 3 0.0 0.0 8.4375 2.90937
454 3 0.0 0.0 8.4375 5.81874
455 3 0.0 0.0 8.4375 8.72811
456 3 0.0 0.0 8.4375 11.6375
457 3 0.0 0.0 8.4375 14.5468
458 3 0.0 0.0 11.25 0.0
459 3 0.0 0.0 11.25 2.90937
460 3 0.0 0.0 11.25 5.81874
461 3 0.0 0.0 11.25 8.72811
462 3 0.0 0.0 11.25 11.6375
463 3 0.0 0.0 11.25 14.5468
464 3 0.0 0.0 14.0625 0.0
465 3 0.0 0.0 14.0625 2.90937
466 3 0.0 0.0 14.0625 5.81874
467 3 0.0 0.0 14.0625 8.72811
468 3 0.0 0.0 14.0625 11.6375
469 3 0.0 0.0 14.0625 14.5468
470 3 0.0 2.90937 0.0 0.0
471 3 0.0 2.90937 0.0 2.90937
472 3 0.0 2.90937 0.0 5.81874
473 3 0.0 2.90937 0.0 8.72811
474 3 0.0 2.90937 0.0 11.6375
475 3 0.0 2.90937 0.0 14.5468
476 3 0.0 2.90937 2.8125 0.0
477 3 0.0 2.90937 2.8125 2.90937
478 3 0.0 2.90937 2.8125 5.81874
479 3 0.0 2.90937 2.8125 8.72811
480 3 0.0 2.90937 2.8125 11.6375
481 3 0.0 2.90937 2.8125 14.5468
482 3 0.0 2.90937 5.625 0.0
483 3 0.0 2.90937 5.625 2.90937
484 3 0.0 2.90937 5.625 5.81874
485 3 0.0 2.90937 5.625 8.72811
486 3 0.0 2.90937 5.625 11.6375
487 3 0.0 2.90937 5.625 14.5468
488 3 0.0 2.90937 8.4375 0.0
489 3 0.0 2.90937 8.4375 2.90937
490 3 0.0 2.90937 8.4375 5.81874
491 3 0.0 2.90937 8.4375 8.72811
492 3 0.0 2.90937 8.4375 11.6375
493 3 0.0 2.90937 8.4375 14.5468
494 3 0.0 2.90937 11.25 0.0
495 3 0.0 2.90937 11.25 2.90937
496 3 0.0 2.90937 11.25 5.81874
497 3 0.0 2.90937 11.25 8.72811
498 3 0.0 2.90937 11.25 11.6375
499 3 0.0 2.90937 11.25 14.5468
500 3 0.0 2.90937 14.0625 0.0
501 3 0.0 2.90937 14.0625 2.90937
502 3 0.0 2.90937 14.0625 5.81874
503 3 0.0 2.90937 14.0625 8.72811
504 3 0.0 2.90937 14.0625 11.6375
505 3 0.0 2.90937 14.0625 14.5468
506 3 0.0 5.81874 0.0 0.0
507 3 0.0 5.81874 0.0 2.90937
508 3 0.0 5.81874 0.0 5.81874
509 3 0.0 5.81874 0.0 8.72811
510 3 0.0 5.81874 0.0 11.6375
511 3 0.0 5.81874 0.0 14.5468
512 3 0.0 5.81874 2.8125 0.0
513 3 0.0 5.81874 2.8125 2.90937
514 3 0.0 5.81874 2.8125 5.81874
515 3 0.0 5.81874 2.8125 8.72811
516 3 0.0 5.81874 2.8125 11.6375
517 3 0.0 5.81874 2.8125 14.5468
518 3 0.0 5.81874 5.625 0.0
519 3 0.0 5.81874 5.625 2.90937
520 3 0.0 5.81874 5.625 5.81874
521 3 0.0 5.81874 5.625 8.72811
522 3 0.0 5.81874 5.625 11.6375
523 3 0.0 5.81874 5.625 14.5468
524 3 0.0 5.81874 8.4375 0.0
525 3 0.0 5.81874 8.4375 2.90937
526 3 0.0 5.81874 8.4375 5.81874
527 3 0.0 5.81874 8.4375 8.72811
528 3 0.0 5.81874 8.4375 11.6375
529 3 0.0 5.81874 8.4375 14.5468
530 3 0.0 5.81874 11.25 0.0
531 3 0.0 5.81874 11.25 2.90937
532 3 0.0 5.81874 11.25 5.81874
533 3 0.0 5.81874 11.25 8.72811
534 3 0.0 5.81874 11.25 11.6375
535 3 0.0 5.81874 11.25 14.5468
536 3 0.0 5.81874 14.0625 0.0
537 3 0.0 5.81874 14.0625 2.90937
538 3 0.0 5.81874 14.0625 5.81874
539 3 0.0 5.81874 14.0625 8.72811
540 3 0.0 5.81874 14.0625 11.6375
541 3 0.0 5.81874 14.0625 14.5468
542 3 0.0 8.72811 0.0 0.0
543 3 0.0 8.72811 0.0 2.90937
544 3 0.0 8.72811 0.0 5.81874
545 3 0.0 8.72811 0.0 8.72811
546 3 0.0 8.72811 0.0 11.6375
547 3 0.0 8.72811 0.0 14.5468
548 3 0.0 8.72811 2.8125 0.0
549 3 0.0 8.72811 2.8125 2.90937
550 3 0.0 8.72811 2.8125 5.81874
551 3 0.0 8.72811 2.8125 8.72811
552 3 0.0 8.72811 2.8125 11.6375
553 3 0.0 8.72811 2.8125 14.5468
554 3 0.0 8.72811 5.625 0.0
555 3 0.0 8.72811 5.625 2.90937
556 3 0.0 8.72811 5.625 5.81874
557 3 0.0 8.72811 5.625 8.72811
558 3 0.0 8.72811 5.625 11.6375
559 3 0.0 8.72811 5.625 14.5468
560 3 0.0 8.72811 8.4375 0.0
561 3 0.0 8.72811 8.4375 2.90937
562 3 0.0 8.72811 8.4375 5.81874
563 3 0.0 8.72811 8.4375 8.72811
564 3 0.0 8.72811 8.4375 11.6375
565 3 0.0 8.72811 8.4375 14.5468
566 3 0.0 8.72811 11.25 0.0
567 3 0.0 8.72811 11.25 2.90937
568 3 0.0 8.72811 11.25 5.81874
569 3 0.0 8.72811 11.25 8.72811
570 3 0.0 8.72811 11.25 11.6375
571 3 0.0 8.72811 11.25 14.5468
572 3 0.0 8.72811 14.0625 0.0
573 3 0.0 8.72811 14.0625 2.90937
574 3 0.0 8.72811 14.0625 5.81874
575 3 0.0 8.72811 14.0625 8.72811
576 3 0.0 8.72811 14.0625 11.6375
577 3 0.0 8.72811 14.0625 14.5468
578 3 0.0 11.6375 0.0 0.0
579 3 0.0 11.6375 0.0 2.90937
580 3 0.0 11.6375 0.0 5.81874
581 3 0.0 11.6375 0.0 8.72811
582 3 0.0 11.6375 0.0 11.6375
583 3 0.0 11.6375 0.0 14.5468
584 3 0.0 11.6375 2.8125 0.0
585 3 0.0 11.6375 2.8125 2.90937
586 3 0.0 11.6375 2.8125 5.81874
587 3 0.0 11.6375 2.8125 8.72811
588 3 0.0 11.6375 2.8125 11.6375
589 3 0.0 11.6375 2.8125 14.5468
590 3 0.0 11.6375 5.625 0.0
591 3 0.0 11.6375 5.625 2.90937
592 3 0.0 11.6375 5.625 5.81874
593 3 0.0 11.6375 5.625 8.72811
594 3 0.0 11.6375 5.625 11.6375
595 3 0.0 11.6375 5.625 14.5468
596 3 0.0 11.6375 8.4375 0.0
597 3 0.0 11.6375 8.4375 2.90937
598 3 0.0 11.6375 8.4375 5.81874
599 3 0.0 11.6375 8.4375 8.72811
600 3 0.0 11.6375 8.4375 11.6375
601 3 0.0 11.6375 8.4375 14.5468
602 3 0.0 11.6375 11.25 0.0
603 3 0.0 11.6375 11.25 2.90937
604 3 0.0 11.6375 11.25 5.81874
605 3 0.0 11.6375 11.25 8.72811
606 3 0.0 11.6375 11.25 11.6375
607 3 0.0 11.6375 11.25 14.5468
608 3 0.0 11.6375 14.0625 0.0
609 3 0.0 11.6375 14.0625 2.90937
610 3 0.0 11.6375 14.0625 5.81874
611 3 0.0 11.6375 14.0625 8.72811
612 3 0.0 11.6375 14.0625 11.6375
613 3 0.0 11.6375 14.0625 14.5468
614 3 0.0 14.5468 0.0 0.0
615 3 0.0 14.5468 0.0 2.90937
616 3 0.0 14.5468 0.0 5.81874
617 3 0.0 14.5468 0.0 8.72811
618 3 0.0 14.5468 0.0 11.6375
619 3 0.0 14.5468 0.0 14.5468
620 3 0.0 14.5468 2.8125 0.0
621 3 0.0 14.5468 2.8125 2.90937
622 3 0.0 14.5468 2.8125 5.81874
623 3 0.0 14.5468 2.8125 8.72811
624 3 0.0 14.5468 2.8125 11.6375
625 3 0.0 14.5468 2.8125 14.5468
626 3 0.0 14.5468 5.625 0.0
627 3 0.0 14.5468 5.625 2.90937
628 3 0.0 14.5468 5.625 5.81874
629 3 0.0 14.5468 5.625 8.72811
630 3 0.0 14.5468 5.625 11.6375
631 3 0.0 14.5468 5.625 14.5468
632 3 0.0 14.5468 8.4375 0.0
633 3 0.0 14.5468 8.4375 2.90937
634 3 0.0 14.5468 8.4375 5.81874
635 3 0.0 14.5468 8.4375 8.72811
636 3 0.0 14.5468 8.4375 11.6375
637 3 0.0 14.5468 8.4375 14.5468
638 3 0.0 14.5468 11.25 0.0
639 3 0.0 14.5468 11.25 2.90937
640 3 0.0 14.5468 11.25 5.81874
641 3 0.0 14.5468 11.25 8.72811
642 3 0.0 14.5468 11.25 11.6375
643 3 0.0 14.5468 11.25 14.5468
644 3 0.0 14.5468 14.0625 0.0
645 3 0.0 14.5468 14.0625 2.90937
646 3 0.0 14.5468 14.0625 5.81874
647 3 0.0 14.5468 14.0625 8.72811
648 3 0.0 14.5468 14.0625 11.6375
649 3 0.0 14.5468 14.0625 14.5468
