#Input file for lammps
 
4050 atoms
3 atom types
 
0.0 175.5 xlo xhi
0.0 175.5 ylo yhi
0.0 175.5 zlo zhi
 
Masses
 
1 14
2 12
3 1.008
 
Atoms
 
      1 1 0      92.9799      77.1482      120.542
      2 2 0      92.6596      76.7552      119.049
      3 2 0      92.5352      75.3612      119.083
      4 2 0      92.7429      74.8594      120.427
      5 2 0      92.9955      75.9712      121.207
      6 3 0      92.3144      74.7415      118.227
      7 3 0      92.7072      73.8273       120.75
      8 3 0      93.1963      75.9573      122.272
      9 3 0      93.1554      78.1874      120.951
     10 1 0      92.2259      77.1947      116.544
     11 2 0       92.525      77.5711      117.936
     12 2 0      92.6505      79.0038      117.889
     13 2 0       92.445      79.4703      116.577
     14 2 0      92.1749      78.3643      115.699
     15 3 0      92.8704      79.6329      118.738
     16 3 0      92.4851      80.5074      116.277
     17 3 0      92.0592      76.1426       116.19
     18 1 0      91.8635      79.6192      113.449
     19 2 0      91.5663      79.2296      112.077
     20 2 0      91.4418      77.8036      112.118
     21 2 0      91.6498      77.3399      113.438
     22 2 0      91.9178      78.4456      114.307
     23 3 0      91.2218      77.1721       111.27
     24 3 0       91.611      76.3038      113.741
     25 3 0      92.0283      80.6759      113.795
     26 1 0      91.1276      79.6387       109.56
     27 2 0      91.4229      80.0402      110.926
     28 2 0      91.5437      81.4674       110.87
     29 2 0      91.3351      81.9177      109.547
     30 2 0      91.0699      80.8032      108.685
     31 3 0      91.7617      82.1076      111.711
     32 3 0      91.3715      82.9499      109.233
     33 3 0      90.9679      78.5791      109.222
     34 1 0      90.7553      82.0275      106.403
     35 2 0      90.4724      81.5976      105.069
     36 2 0      90.3531      80.1826      105.114
     37 2 0      90.5584      79.7397      106.451
     38 2 0      90.8156      80.8555      107.299
     39 3 0      90.1409      79.5412      104.271
     40 3 0      90.5249      78.7087       106.77
     41 3 0      90.9164      83.0964      106.718
     42 1 0      90.0376      81.8256      102.536
     43 2 0      90.3227      82.3923      103.858
     44 2 0      90.4561      83.8414      103.913
     45 2 0      90.2431      84.2845      102.618
     46 2 0      89.9918      83.0817      101.844
     47 3 0      90.6688      84.4502      104.776
     48 3 0      90.2564      85.3054      102.271
     49 3 0      89.7551      80.7805      102.219
     50 1 0      89.6545      84.4907      99.6847
     51 2 0      89.4075      83.9274      98.3725
     52 2 0      89.2777      82.4919      98.3002
     53 2 0      89.4696      82.0388      99.6043
     54 2 0      89.7066      83.2268      100.388
     55 3 0      89.0837       81.888      97.4276
     56 3 0      89.4556      81.0141      99.9425
     57 3 0      89.9911      85.5234      99.9918
     58 1 0      89.0455      84.1537      95.8122
     59 2 0      89.2763      84.7251      97.1236
     60 2 0      89.3676      86.1634      97.1998
     61 2 0      89.1375      86.6155      95.9015
     62 2 0      88.9292      85.4236      95.1143
     63 3 0      89.5513      86.7703      98.0726
     64 3 0      89.1069      87.6416      95.5685
     65 3 0      88.6057      83.1512      95.5395
     66 1 0      88.5027      86.8408      92.9762
     67 2 0      88.3134      86.2535      91.6508
     68 2 0      88.2463      84.8166      91.5753
     69 2 0      88.4412      84.3693      92.8828
     70 2 0      88.6191      85.5616        93.67
     71 3 0      88.1059      84.2069      90.6958
     72 3 0      88.4783      83.3433      93.2161
     73 3 0      89.1777      87.7222      93.1768
     74 1 0      87.9986      86.4438      89.0774
     75 2 0      88.2047      87.0344       90.397
     76 2 0      88.2937      88.4713      90.4648
     77 2 0      88.0949      88.9157      89.1582
     78 2 0      87.8984      87.7214      88.3761
     79 3 0       88.458      89.0833      91.3378
     80 3 0      88.0693      89.9399      88.8191
     81 3 0      87.3266       85.559      88.8805
     82 1 0      87.4967      89.1364      86.2324
     83 2 0      87.2776      88.5491      84.9143
     84 2 0       87.189      87.1115      84.8446
     85 2 0      87.3921      86.6664      86.1498
     86 2 0      87.5967      87.8601      86.9323
     87 3 0      87.0233      86.5007      83.9702
     88 3 0      87.4114      85.6425       86.488
     89 3 0      88.1372      90.0411      86.4388
     90 1 0      86.9268      88.7448       82.345
     91 2 0      87.1474      89.3316      83.6634
     92 2 0      87.2331      90.7689      83.7355
     93 2 0      87.0212      91.2162      82.4324
     94 2 0      86.8188      90.0232      81.6479
     95 3 0      87.4025      91.3789      84.6096
     96 3 0      86.9951      92.2412      82.0955
     97 3 0      86.2701      87.8513      82.1374
     98 1 0      86.4041      91.4417      79.5078
     99 2 0      86.1998      90.8507      78.1869
    100 2 0      86.1141      89.4129      78.1173
    101 2 0       86.317      88.9685      79.4227
    102 2 0      86.5118      90.1626      80.2064
    103 3 0      85.9523      88.8013      77.2431
    104 3 0       86.347      87.9445      79.7612
    105 3 0       87.082      92.3243      79.6965
    106 1 0      85.8908      91.0458      75.6125
    107 2 0      86.0938      91.6333      76.9353
    108 2 0      86.1818      93.0708      77.0085
    109 2 0      85.9787      93.5193      75.7049
    110 2 0      85.7799      92.3273      74.9183
    111 3 0      86.3423      93.6796      77.8851
    112 3 0      85.9507      94.5447      75.3698
    113 3 0      85.2117      90.1679      75.4096
    114 1 0      85.3456      93.7463      72.7839
    115 2 0      85.1373      93.1581      71.4632
    116 2 0      85.0499      91.7203      71.3924
    117 2 0      85.2615      91.2733      72.6952
    118 2 0      85.4619       92.467      73.4797
    119 3 0      84.8854      91.1105      70.5178
    120 3 0      85.2958      90.2487      73.0317
    121 3 0      86.0121      94.6356      72.9791
    122 1 0      84.8307      93.3571      68.8884
    123 2 0        85.03      93.9424      70.2123
    124 2 0      85.1141        95.38      70.2885
    125 2 0      84.9171      95.8293      68.9839
    126 2 0      84.7212      94.6382      68.1951
    127 3 0      85.2686      95.9859       71.167
    128 3 0      84.8887      96.8546      68.6499
    129 3 0      84.1616      92.4709       68.687
    130 1 0       84.286      96.0583      66.0596
    131 2 0      84.0772      95.4671      64.7388
    132 2 0      84.0004      94.0292       64.668
    133 2 0      84.2162      93.5841      65.9712
    134 2 0      84.4071      94.7789      66.7554
    135 3 0      83.8398      93.4173      63.7935
    136 3 0      84.2553      92.5598      66.3078
    137 3 0       84.963      96.9403      66.2541
    138 1 0      83.7556      95.6583      62.1652
    139 2 0      83.9592      96.2485      63.4876
    140 2 0      84.0361      97.6861       63.561
    141 2 0      83.8365      98.1325      62.2557
    142 2 0      83.6486      96.9394      61.4687
    143 3 0      84.1915      98.2965      64.4376
    144 3 0      83.8056      99.1577      61.9212
    145 3 0       83.075      94.7794       61.973
    146 1 0      83.2406      98.3639      59.3317
    147 2 0      83.0319      97.7763        58.01
    148 2 0      82.9547      96.3387      57.9351
    149 2 0      83.1591      95.8897      59.2388
    150 2 0      83.3489       97.082      60.0267
    151 3 0      82.7976      95.7313      57.0572
    152 3 0       83.192      94.8646      59.5736
    153 3 0      83.9213      99.2407      59.5315
    154 1 0      82.6993      97.9651      55.4383
    155 2 0      82.9075      98.5569      56.7585
    156 2 0      82.9843      99.9946      56.8288
    157 2 0      82.7767      100.439      55.5238
    158 2 0      82.5882      99.2445      54.7396
    159 3 0      83.1412      100.607      57.7033
    160 3 0      82.7426      101.463       55.186
    161 3 0       82.023      97.0824      55.2476
    162 3 0      82.3733      99.3205      53.6737
    163 1 0      49.2761      18.1668      2.30032
    164 2 0      48.3618      18.3288      3.57422
    165 2 0      47.5689      17.1749      3.57302
    166 2 0      47.8956       16.328      2.44388
    167 2 0      48.8992      16.9863      1.75988
    168 3 0      46.8157      16.9447      4.31171
    169 3 0      47.4457      15.3769      2.19022
    170 3 0      49.3811      16.6293      0.85668
    171 3 0      50.0673      18.8859      1.93201
    172 1 0      47.4645      19.5017      5.68966
    173 2 0       48.323      19.3588      4.50233
    174 2 0       49.133      20.5481      4.51315
    175 2 0         48.8       21.356       5.6171
    176 2 0      47.7547      20.7343      6.38341
    177 3 0       49.888      20.7885      3.78124
    178 3 0       49.264      22.3032      5.85093
    179 3 0      46.6916       18.754      6.01186
    180 1 0      47.4492      22.4917      8.26816
    181 2 0       46.592      22.6175      9.44014
    182 2 0      45.7831      21.4358      9.43228
    183 2 0      46.1207       20.628      8.32124
    184 2 0      47.1622       21.252      7.56249
    185 3 0      45.0267      21.1933       10.164
    186 3 0       45.658      19.6813      8.08474
    187 3 0      48.2213      23.2455      7.95361
    188 1 0       45.672      23.7691      11.5658
    189 2 0      46.5338      23.6545      10.4005
    190 2 0      47.3372      24.8414      10.4216
    191 2 0      46.9899      25.6398      11.5345
    192 2 0      45.9454      25.0071      12.2855
    193 3 0      48.0966      25.0923      9.69624
    194 3 0       47.445       26.587      11.7805
    195 3 0      44.8995      23.0123      11.8713
    196 1 0      45.6046      26.7523      14.1939
    197 2 0      44.7359      26.8379      15.3266
    198 2 0      43.9331      25.6658      15.3132
    199 2 0      44.2943       24.866      14.1933
    200 2 0      45.3364      25.5013      13.4573
    201 3 0       43.169      25.4173      16.0354
    202 3 0      43.8418      23.9186       13.941
    203 3 0      46.3688       27.527       13.905
    204 1 0      43.6902       27.858      17.4533
    205 2 0      44.6371      27.8846       16.334
    206 2 0        45.51      29.0484      16.2676
    207 2 0      45.1759      29.8276      17.3636
    208 2 0       44.118      29.0967      18.0377
    209 3 0      46.2645      29.2636      15.5291
    210 3 0      45.6177      30.7689      17.6489
    211 3 0      43.0048      27.0449      17.8296
    212 1 0      43.9743      30.9236      19.8828
    213 2 0      43.0146      30.9136      20.9688
    214 2 0      42.1387      29.7693      21.0457
    215 2 0      42.4825      28.9687      19.9577
    216 2 0      43.5447       29.677      19.2853
    217 3 0      41.3719      29.5708       21.778
    218 3 0       42.034      28.0276      19.6788
    219 3 0      44.6173      31.7569      19.4754
    220 1 0      41.9135      31.9785      23.0642
    221 2 0      42.8865      31.9873      21.9905
    222 2 0      43.7871      33.1137      21.9378
    223 2 0      43.4663       33.893      23.0481
    224 2 0      42.3844      33.1967      23.7026
    225 3 0      44.5614      33.3096      21.2125
    226 3 0      43.9425      34.8117      23.3544
    227 3 0      41.3641       31.105      23.5203
    228 1 0      42.3057      34.9785      25.5949
    229 2 0      41.2927      34.9829      26.6489
    230 2 0      40.3804      33.8687      26.6844
    231 2 0      40.7282      33.0727      25.5922
    232 2 0      41.8266      33.7548      24.9589
    233 3 0      39.5773      33.6943      27.3841
    234 3 0      40.2487       32.157      25.2811
    235 3 0      42.6123      35.9002       25.021
    236 1 0      40.1361      36.0479      28.7193
    237 2 0      41.1391      36.0564      27.6578
    238 2 0      42.0353      37.1841      27.6126
    239 2 0      41.6882      37.9758      28.7067
    240 2 0      40.6014       37.281      29.3492
    241 3 0      42.8233      37.3746       26.901
    242 3 0      42.1572       38.898      29.0139
    243 3 0      39.8279      35.1234      29.2881
    244 1 0      40.5049      39.0753      31.2281
    245 2 0      39.5118      39.0625      32.2977
    246 2 0      38.6139      37.9352       32.344
    247 2 0      38.9575      37.1457      31.2478
    248 2 0      40.0397      37.8436      30.5993
    249 3 0      37.8266      37.7455      33.0577
    250 3 0      38.4916      36.2211      30.9457
    251 3 0      40.8478      39.9962      30.6752
    252 1 0      38.3804      40.1128      34.3904
    253 2 0      39.3725      40.1257      33.3195
    254 2 0      40.2732      41.2505      33.2735
    255 2 0      39.9369      42.0366      34.3744
    256 2 0      38.8527      41.3412      35.0228
    257 3 0      41.0578      41.4414      32.5575
    258 3 0      40.4079      42.9583      34.6804
    259 3 0      38.0525      39.1934      34.9559
    260 1 0      38.7674      43.1304      36.9083
    261 2 0      37.7625      43.1231      37.9695
    262 2 0       36.863      41.9968      38.0137
    263 2 0      37.2072      41.2077      36.9175
    264 2 0      38.2956      41.9008      36.2751
    265 3 0      36.0731      41.8084      38.7245
    266 3 0      36.7356       40.288      36.6077
    267 3 0      39.0665      44.0593      36.3411
    268 1 0      36.6053      44.1948      40.0367
    269 2 0      37.6098      44.1982      38.9749
    270 2 0      38.5099      45.3237      38.9266
    271 2 0      38.1695      46.1152      40.0217
    272 2 0      37.0828       45.423      40.6692
    273 3 0      39.3001      45.5083      38.2149
    274 3 0      38.6428      47.0354      40.3278
    275 3 0      36.3019      43.2749      40.6152
    276 1 0      37.0115       47.201      42.5644
    277 2 0      36.0107      47.1937      43.6282
    278 2 0      35.1114      46.0672      43.6745
    279 2 0      35.4477      45.2813       42.574
    280 2 0      36.5334      45.9764       41.927
    281 3 0      34.3239       45.879      44.3874
    282 3 0      34.9724      44.3641      42.2626
    283 3 0      37.3245      48.1269      42.0006
    284 1 0      34.8545      48.2698      45.6942
    285 2 0      35.8602      48.2693      44.6342
    286 2 0      36.7642      49.3918      44.5864
    287 2 0      36.4203      50.1872      45.6781
    288 2 0      35.3315      49.4981      46.3251
    289 3 0      37.5567      49.5706      43.8773
    290 3 0      36.8943      51.1068      45.9835
    291 3 0      34.5413      47.3476      46.2643
    292 1 0      35.2607      51.2769      48.2217
    293 2 0      34.2581      51.2671      49.2859
    294 2 0      33.3531      50.1456      49.3247
    295 2 0      33.6887       49.363      48.2211
    296 2 0        34.78      50.0546      47.5811
    297 3 0      32.5623      49.9576      50.0348
    298 3 0       33.211      48.4482      47.9064
    299 3 0      35.5632      52.2025      47.6509
    300 1 0      33.1058      52.3296      51.3611
    301 2 0      34.1113      52.3354      50.2994
    302 2 0      35.0177      53.4557      50.2585
    303 2 0      34.6731      54.2479      51.3524
    304 2 0      33.5796      53.5603      51.9925
    305 3 0      35.8115      53.6391      49.5505
    306 3 0       35.148      55.1664      51.6601
    307 3 0      32.8085      51.4037      51.9329
    308 1 0      33.4962      55.3561      53.8714
    309 2 0      32.4953      55.3496      54.9364
    310 2 0      31.5884      54.2298      54.9785
    311 2 0      31.9279      53.4385      53.8823
    312 2 0      33.0204      54.1261      53.2402
    313 3 0      30.7967      54.0483      55.6888
    314 3 0      31.4521      52.5209      53.5731
    315 3 0      33.7963      56.2773       53.294
    316 1 0      31.3484      56.4042      57.0178
    317 2 0      32.3513      56.4144      55.9545
    318 2 0       33.256      57.5359       55.916
    319 2 0      32.9147      58.3229      57.0152
    320 2 0      31.8221      57.6325      57.6536
    321 3 0      34.0493      57.7228      55.2085
    322 3 0      33.3889      59.2403      57.3273
    323 3 0      31.0473      55.4767      57.5854
    324 3 0      31.3867      58.0311      58.5699
    325 1 0      73.9154      56.1724      65.1965
    326 2 0      72.4037       55.782      65.4142
    327 2 0      72.1041      54.9588       64.322
    328 2 0      73.2607      54.8028      63.4635
    329 2 0      74.2668      55.5444      64.0519
    330 3 0       71.143       54.501      64.1414
    331 3 0      73.3221      54.2246      62.5506
    332 3 0      75.2755      55.6485      63.6686
    333 3 0      74.5522      56.8321      65.8583
    334 1 0      70.1286       55.779      66.6306
    335 2 0      71.5402      56.1486      66.4358
    336 2 0      71.8376      56.9931      67.5622
    337 2 0      70.7019      57.1312      68.3828
    338 2 0      69.6045      56.3831      67.8328
    339 3 0      72.7934      57.4555       67.753
    340 3 0      70.6642      57.7144      69.2915
    341 3 0      69.5412      55.1171      65.9399
    342 1 0      67.7662      56.8882      69.5933
    343 2 0      66.3693      56.5125      69.7715
    344 2 0       66.069      55.6725      68.6513
    345 2 0      67.2126      55.5374      67.8298
    346 2 0      68.3018      56.2841      68.3828
    347 3 0      65.1129      55.2088      68.4585
    348 3 0      67.2528      54.9559      66.9206
    349 3 0      68.3467      57.5513      70.2909
    350 1 0      64.0763      56.4902      70.9685
    351 2 0      65.4696      56.8709      70.8026
    352 2 0      65.7564      57.7091      71.9294
    353 2 0      64.6068       57.837       72.741
    354 2 0      63.5223      57.0877      72.1773
    355 3 0      66.7086       58.176       72.132
    356 3 0      64.5549      58.4152       73.651
    357 3 0      63.5019      55.8296      70.2638
    358 1 0      61.6461      57.5762      73.9223
    359 2 0      60.2751      57.1899      74.0505
    360 2 0      59.9804      56.3597      72.9359
    361 2 0      61.1451      56.2321      72.1286
    362 2 0      62.2177      56.9759      72.7007
    363 3 0       59.026      55.8974      72.7296
    364 3 0      61.2028      55.6567      71.2167
    365 3 0      62.1995      58.2442        74.64
    366 1 0       57.921      57.0791      75.1007
    367 2 0      59.3137      57.5381       75.087
    368 2 0      59.7122      58.3921      76.1973
    369 2 0      58.5877      58.5108      76.9982
    370 2 0      57.5656      57.7233      76.3326
    371 3 0      60.6779      58.8371      76.3713
    372 3 0       58.503      59.0654       77.919
    373 3 0      57.3812      56.3194      74.4651
    374 1 0      55.8546      58.2801      78.2101
    375 2 0      54.4692      57.8547      78.2047
    376 2 0       54.057      57.0119      77.1082
    377 2 0      55.1891      56.8694      76.3075
    378 2 0      56.2189      57.6366      76.9657
    379 3 0      53.0818       56.586       76.931
    380 3 0      55.2648      56.3128      75.3861
    381 3 0      56.3774      59.0802      78.8105
    382 1 0      52.0824       57.807      79.2233
    383 2 0      53.4703      58.2227      79.2438
    384 2 0      53.8901      59.0337      80.3613
    385 2 0      52.7666      59.1426       81.179
    386 2 0      51.7303      58.3983      80.5039
    387 3 0      54.8671      59.4523       80.546
    388 3 0      52.6999      59.6614       82.123
    389 3 0      51.6087       56.932      78.6916
    390 1 0      50.0495      58.8816      82.4282
    391 2 0      48.6407      58.4941       82.377
    392 2 0      48.2198      57.7044      81.2482
    393 2 0      49.3563      57.5674      80.4499
    394 2 0      50.3952      58.2859      81.1409
    395 3 0       47.232       57.322      81.0408
    396 3 0      49.4227      57.0541      79.5027
    397 3 0      50.4042      59.9002      82.7588
    398 1 0      46.2283      58.4692      83.3453
    399 2 0      47.6309       58.873      83.3921
    400 2 0      48.0425      59.6819      84.5117
    401 2 0      46.9065      59.8142      85.3093
    402 2 0      45.8737      59.0783      84.6248
    403 3 0      49.0226      60.0864      84.7105
    404 3 0      46.8331      60.3366      86.2507
    405 3 0      45.8761      57.4512      83.0093
    406 1 0      44.1848      59.5821      86.5361
    407 2 0      42.7854      59.1687      86.4982
    408 2 0      42.3718      58.3599      85.3783
    409 2 0       43.506      58.2311      84.5784
    410 2 0      44.5384      58.9735       85.258
    411 3 0      41.3908      57.9548      85.1816
    412 3 0      43.5791      57.7035      83.6406
    413 3 0      44.5536      60.5828       86.902
    414 1 0      40.3814      59.1154      87.4882
    415 2 0      41.7808      59.5298      87.5248
    416 2 0      42.1969      60.3359      88.6454
    417 2 0       41.066      60.4581      89.4511
    418 2 0      40.0317      59.7181      88.7714
    419 3 0      43.1771      60.7436      88.8397
    420 3 0       40.995      60.9805      90.3929
    421 3 0      40.0155      58.1067      87.1401
    422 1 0      38.3482      60.2123      90.6912
    423 2 0       36.944      59.8099      90.6435
    424 2 0      36.5302      59.0034       89.522
    425 2 0      37.6648      58.8748      88.7226
    426 2 0      38.6992       59.609      89.4073
    427 3 0      35.5488      58.6013      89.3225
    428 3 0      37.7372      58.3562      87.7792
    429 3 0      38.6914      61.2346      91.0244
    430 1 0      34.5314      59.7924       91.613
    431 2 0      35.9367      60.1918      91.6581
    432 2 0      36.3537      60.9999      92.7773
    433 2 0      35.2219      61.1303      93.5797
    434 2 0      34.1854      60.3939      92.8995
    435 3 0      37.3368      61.3992      92.9745
    436 3 0      35.1529       61.651      94.5223
    437 3 0      34.1757      58.7722       91.288
    438 1 0      32.5092      60.8713      94.8283
    439 2 0      31.1064      60.4669      94.7848
    440 2 0      30.6915       59.659      93.6645
    441 2 0      31.8221      59.5367      92.8591
    442 2 0      32.8569      60.2754      93.5405
    443 3 0      29.7104      59.2555      93.4679
    444 3 0      31.8921      59.0216      91.9136
    445 3 0      32.8614       61.887      95.1711
    446 1 0      28.6941      60.4534      95.7564
    447 2 0      30.1002      60.8485      95.8013
    448 2 0      30.5205      61.6531      96.9218
    449 2 0      29.3873      61.7892       97.722
    450 2 0      28.3487       61.056      97.0416
    451 3 0      31.5051      62.0458      97.1192
    452 3 0      29.3194      62.3096      98.6644
    453 3 0      28.3369      59.4375       95.419
    454 1 0      26.6718      61.5332      98.9721
    455 2 0      25.2681      61.1268      98.9264
    456 2 0      24.8523       60.328      97.8006
    457 2 0      25.9836      60.2102      96.9946
    458 2 0       27.019      60.9413      97.6818
    459 3 0      23.8706      59.9267      97.6003
    460 3 0      26.0533      59.6993      96.0468
    461 3 0      27.0207      62.5542      99.3037
    462 1 0      22.8564      61.0965       99.899
    463 2 0      24.2618      61.4978       99.946
    464 2 0      24.6801      62.2964      101.071
    465 2 0      23.5458      62.4288       101.87
    466 2 0      22.5078      61.7013      101.184
    467 3 0      25.6639      62.6922      101.272
    468 3 0      23.4775       62.947      102.814
    469 3 0      22.5108      60.0739      99.5711
    470 1 0      20.8282      62.2041      103.104
    471 2 0      19.4245      61.7997      103.062
    472 2 0      19.0049       61.001      101.937
    473 2 0      20.1365      60.8714      101.134
    474 2 0      21.1751      61.6001      101.819
    475 3 0      18.0206      60.6052       101.74
    476 3 0       20.205       60.355      100.189
    477 3 0      21.1805      63.2254      103.428
    478 1 0      17.0149      61.7587      104.037
    479 2 0      18.4182      62.1649      104.084
    480 2 0      18.8335      62.9636       105.21
    481 2 0      17.6997      63.0883      106.012
    482 2 0      16.6641      62.3593      105.323
    483 3 0      19.8157      63.3621      105.413
    484 3 0      17.6282      63.6033      106.957
    485 3 0      16.6695      60.7377      103.704
    486 3 0      15.6712      62.2751      105.765
    487 1 0      110.224      117.159      127.852
    488 2 0      109.932      116.381      126.512
    489 2 0        111.1      116.549      125.759
    490 2 0      112.071      117.341      126.487
    491 2 0      111.473      117.651      127.693
    492 3 0      111.259      116.145      124.771
    493 3 0      113.059       117.63      126.153
    494 3 0      111.925      118.238      128.484
    495 3 0      109.533      117.273      128.739
    496 1 0      108.533      114.957      124.878
    497 2 0      108.796      115.681      126.133
    498 2 0      107.591      115.501      126.898
    499 2 0      106.663       114.73      126.174
    500 2 0      107.215      114.366      124.898
    501 3 0      107.421        115.9      127.886
    502 3 0       105.68      114.453      126.529
    503 3 0      109.257      114.874      124.025
    504 1 0      105.247      112.992      123.912
    505 2 0      105.002       112.28      122.664
    506 2 0      106.199      112.457      121.898
    507 2 0      107.128      113.233       122.63
    508 2 0      106.573      113.592      123.899
    509 3 0      106.371      112.059      120.909
    510 3 0       108.11      113.512      122.277
    511 3 0      104.515      113.069      124.761
    512 1 0      103.623      110.853      121.005
    513 2 0      103.856      111.559      122.254
    514 2 0      102.652      111.372       123.01
    515 2 0      101.732      110.597      122.269
    516 2 0      102.297      110.246      120.999
    517 3 0      102.471      111.765      123.999
    518 3 0      100.748      110.313       122.61
    519 3 0      104.358      110.784      120.158
    520 1 0      100.339      108.863      119.971
    521 2 0      100.139      108.185      118.727
    522 2 0      101.327      108.366      117.969
    523 2 0      102.249      109.143      118.726
    524 2 0      101.679      109.482      119.988
    525 3 0      101.507      107.979      116.977
    526 3 0      103.234      109.431      118.389
    527 3 0      99.5839      108.922      120.804
    528 1 0      98.8941       106.79      116.949
    529 2 0      98.9788      107.439      118.262
    530 2 0      97.8068      107.302      119.115
    531 2 0      96.9076      106.534      118.392
    532 2 0      97.5802      106.246      117.138
    533 3 0      97.6628      107.704      120.104
    534 3 0      95.9254      106.219      118.706
    535 3 0      99.6742      106.616      116.153
    536 1 0      95.5431      104.853      116.318
    537 2 0      95.4465      104.242      115.007
    538 2 0       96.598      104.373      114.147
    539 2 0      97.5171      105.127      114.875
    540 2 0      96.8665      105.409      116.132
    541 3 0      96.7266      103.984       113.15
    542 3 0      98.4985      105.439      114.553
    543 3 0      94.7481      105.075      117.088
    544 1 0      94.1626      102.903      113.192
    545 2 0      94.2584      103.498       114.51
    546 2 0      93.1209      103.332      115.382
    547 2 0      92.2195      102.546      114.666
    548 2 0       92.861       102.29      113.399
    549 3 0      92.9938      103.712      116.384
    550 3 0      91.2561      102.196      115.003
    551 3 0      94.9885      102.595      112.488
    552 1 0      90.8607      100.823      112.618
    553 2 0      90.7555      100.263      111.272
    554 2 0      91.8832      100.451      110.396
    555 2 0      92.7982      101.207      111.129
    556 2 0      92.1677      101.437      112.403
    557 3 0      91.9932      100.108      109.378
    558 3 0      93.7594      101.564      110.791
    559 3 0      90.0089       101.34      113.147
    560 1 0      89.4762      98.9693      109.415
    561 2 0      89.5699       99.541      110.756
    562 2 0      88.4303      99.3708      111.622
    563 2 0      87.5194      98.6115      110.888
    564 2 0      88.1609      98.3678      109.621
    565 3 0      88.3065      99.7317      112.631
    566 3 0      86.5526      98.2631      111.218
    567 3 0      90.3315      98.4566      108.887
    568 1 0      86.1506      96.9217       108.83
    569 2 0      86.0598      96.3381      107.495
    570 2 0      87.1989      96.5081      106.627
    571 2 0       88.108      97.2709      107.358
    572 2 0      87.4642      97.5223      108.624
    573 3 0      87.3217      96.1451      105.618
    574 3 0      89.0764      97.6132      107.029
    575 3 0      85.2958      97.4057      109.383
    576 1 0      84.7916      95.0118      105.652
    577 2 0      84.8824       95.597      106.987
    578 2 0      83.7457      95.4253      107.857
    579 2 0      82.8392      94.6549       107.13
    580 2 0      83.4806      94.4047      105.863
    581 3 0      83.6221      95.7917      108.864
    582 3 0      81.8729      94.3068      107.462
    583 3 0      85.6429      94.5106      105.108
    584 1 0       81.474      92.9475      105.079
    585 2 0      81.3793       92.377      103.737