#Input file for lammps
 
4030 atoms
4 atom types
 
0.0 30.5669 xlo xhi
0.0 30.5669 ylo yhi
0.0 65.8769 zlo zhi
 
Masses
 
1 28.06
2 1.008
3 14
4 12
 
Atoms
 
      1 1 0     0.955205      3.57105      2.20104
      2 1 0     0.955205      18.8544      2.20106
      3 1 0      27.7013      3.57105      2.20107
      4 1 0     0.955205      11.2129      2.20107
      5 1 0     0.955215      26.4962       2.2011
      6 1 0      4.77607      3.57105      2.20111
      7 1 0      12.4179      3.57105      2.20111
      8 1 0      16.2386      3.57105      2.20111
      9 1 0      20.0594      3.57105      2.20112
     10 1 0      27.7013      18.8544      2.20112
     11 1 0        8.597      3.57105      2.20113
     12 1 0      23.8804      3.57105      2.20113
     13 1 0      27.7013      11.2129      2.20113
     14 1 0      4.77607      11.2129      2.20114
     15 1 0      4.77606      18.8544      2.20114
     16 1 0      12.4179      18.8544      2.20114
     17 1 0      16.2386      18.8544      2.20114
     18 1 0      27.7013      26.4962      2.20114
     19 1 0      12.4179      11.2129      2.20115
     20 1 0      16.2386      11.2129      2.20115
     21 1 0      20.0594      11.2129      2.20115
     22 1 0        8.597      18.8544      2.20115
     23 1 0      20.0594      18.8544      2.20115
     24 1 0      8.59702      11.2129      2.20117
     25 1 0      23.8804      11.2129      2.20117
     26 1 0      23.8804      18.8544      2.20117
     27 1 0      4.77606      26.4962      2.20118
     28 1 0      12.4179      26.4962      2.20118
     29 1 0      16.2386      26.4962      2.20118
     30 1 0        8.597      26.4962      2.20119
     31 1 0      20.0594      26.4962      2.20119
     32 1 0     0.955205      21.2642      2.20119
     33 1 0      23.8804      26.4962      2.20119
     34 1 0     0.955215      28.9061      2.20119
     35 1 0     0.955205      13.6227      2.20122
     36 1 0      27.7013      21.2642      2.20125
     37 1 0      27.7013      28.9061      2.20125
     38 1 0     0.955205      5.98088      2.20127
     39 1 0      27.7013      13.6227      2.20127
     40 1 0      4.77606      21.2642      2.20127
     41 1 0      12.4179      21.2642      2.20127
     42 1 0      16.2386      21.2642      2.20127
     43 1 0      20.0594      21.2642      2.20127
     44 1 0      4.77606      28.9061      2.20127
     45 1 0      12.4179      28.9061      2.20127
     46 1 0      16.2386      28.9061      2.20127
     47 1 0      20.0594      28.9061      2.20127
     48 1 0        8.597      21.2642      2.20128
     49 1 0        8.597      28.9061      2.20128
     50 1 0      23.8804      21.2642       2.2013
     51 1 0      23.8804      28.9061       2.2013
     52 1 0      4.77607      13.6227      2.20131
     53 1 0      12.4179      13.6227      2.20131
     54 1 0      16.2386      13.6227      2.20131
     55 1 0      20.0594      13.6227      2.20132
     56 1 0      27.7013      5.98088      2.20133
     57 1 0      8.59702      13.6227      2.20133
     58 1 0      23.8804      13.6227      2.20133
     59 1 0      4.77607      5.98088      2.20134
     60 1 0      12.4179      5.98088      2.20135
     61 1 0      16.2386      5.98088      2.20135
     62 1 0      20.0594      5.98088      2.20135
     63 1 0        8.597      5.98088      2.20137
     64 1 0      23.8804      5.98088      2.20137
     65 1 0      29.6117      10.6876      3.48293
     66 1 0      29.6117      3.04596      3.48299
     67 1 0      29.6117      14.1478      3.48313
     68 1 0      21.9699      10.6879      3.48314
     69 1 0      29.6117      18.3296      3.48316
     70 1 0      6.68652      10.6879      3.48317
     71 1 0      10.5075      10.6879      3.48317
     72 1 0      14.3283      10.6878      3.48318
     73 1 0       18.149      10.6879      3.48318
     74 1 0      6.68652      3.04619      3.48319
     75 1 0      25.7908      3.04621      3.48319
     76 1 0      21.9699      3.04621      3.48319
     77 1 0       2.8656      3.04629       3.4832
     78 1 0      25.7908       10.688       3.4832
     79 1 0      10.5075      3.04622      3.48321
     80 1 0      29.6117      25.9714      3.48321
     81 1 0      14.3283      3.04621      3.48324
     82 1 0       18.149      3.04622      3.48324
     83 1 0      29.6117      6.50591      3.48325
     84 1 0       2.8656      10.6881      3.48325
     85 1 0       2.8656      25.9714      3.48326
     86 1 0       2.8656      18.3297      3.48328
     87 1 0      6.68652      18.3297       3.4833
     88 1 0      21.9699      18.3297       3.4833
     89 1 0      10.5075      18.3297      3.48331
     90 1 0      25.7908      18.3297      3.48331
     91 1 0      29.6117      21.7892      3.48331
     92 1 0      25.7908      25.9715      3.48332
     93 1 0      29.6117      29.4309      3.48332
     94 1 0       18.149      18.3297      3.48332
     95 1 0      6.68652      25.9715      3.48332
     96 1 0      21.9699      25.9715      3.48332
     97 1 0      14.3283      18.3297      3.48333
     98 1 0      10.5075      25.9715      3.48333
     99 1 0      21.9699      14.1476      3.48334
    100 1 0      10.5075      14.1476      3.48335
    101 1 0       18.149      25.9715      3.48335
    102 1 0       2.8656      29.4309      3.48335
    103 1 0      6.68652      14.1476      3.48337
    104 1 0      14.3283      14.1476      3.48337
    105 1 0      14.3283      25.9715      3.48337
    106 1 0       18.149      14.1476      3.48338
    107 1 0      25.7908      14.1475       3.4834
    108 1 0      25.7908      29.4308      3.48341
    109 1 0       2.8656       21.789      3.48342
    110 1 0      6.68652      29.4308      3.48342
    111 1 0      21.9699      29.4308      3.48342
    112 1 0       2.8656      14.1474      3.48344
    113 1 0      21.9699       21.789      3.48344
    114 1 0      10.5075      29.4308      3.48344
    115 1 0      6.68652       6.5057      3.48345
    116 1 0      25.7908       6.5057      3.48345
    117 1 0      6.68652       21.789      3.48345
    118 1 0      25.7908       21.789      3.48345
    119 1 0      21.9699      6.50568      3.48346
    120 1 0      10.5075       21.789      3.48346
    121 1 0       18.149      29.4308      3.48346
    122 1 0      14.3283      29.4308      3.48346
    123 1 0       2.8656      6.50563      3.48347
    124 1 0      10.5075      6.50568      3.48347
    125 1 0      14.3283       21.789      3.48347
    126 1 0       18.149       21.789      3.48347
    127 1 0      14.3283      6.50568       3.4835
    128 1 0       18.149      6.50568       3.4835
    129 1 0      29.6117     0.955245      4.70087
    130 1 0      2.86562     0.955175      4.70087
    131 1 0      29.6117      23.8803       4.7009
    132 1 0      25.7908     0.955205       4.7009
    133 1 0      29.6117      8.59695       4.7009
    134 1 0      2.86562      23.8803       4.7009
    135 1 0      21.9699     0.955205      4.70092
    136 1 0      6.68651     0.955215      4.70092
    137 1 0      10.5074     0.955205      4.70092
    138 1 0      2.86562      8.59693      4.70092
    139 1 0      25.7908      23.8803      4.70092
    140 1 0       18.149     0.955205      4.70094
    141 1 0      29.6117      16.2385      4.70094
    142 1 0      14.3283     0.955205      4.70094
    143 1 0      25.7908      8.59693      4.70094
    144 1 0      6.68651      23.8803      4.70094
    145 1 0      21.9699      23.8803      4.70094
    146 1 0      2.86562      16.2386      4.70096
    147 1 0      10.5074      23.8803      4.70096
    148 1 0      6.68651      8.59694      4.70097
    149 1 0      21.9699      8.59695      4.70097
    150 1 0       18.149      23.8803      4.70097
    151 1 0      10.5074      8.59695      4.70097
    152 1 0      25.7908      16.2386      4.70097
    153 1 0      14.3283      23.8803      4.70097
    154 1 0       18.149      8.59697      4.70099
    155 1 0      14.3283      8.59697      4.70099
    156 1 0      6.68651      16.2385      4.70099
    157 1 0      21.9699      16.2385      4.70099
    158 1 0      10.5074      16.2385      4.70101
    159 1 0       18.149      16.2385      4.70101
    160 1 0      14.3283      16.2385      4.70102
    161 1 0       2.8656      20.0594      4.84345
    162 1 0      25.7908      20.0594      4.84347
    163 1 0      6.68651      20.0594      4.84349
    164 1 0      21.9699      20.0594      4.84351
    165 1 0      6.68651      27.7013      4.84351
    166 1 0      21.9699      27.7013      4.84352
    167 1 0      25.7908      27.7013      4.84352
    168 1 0      10.5075      20.0594      4.84352
    169 1 0      2.86559      4.77606      4.84354
    170 1 0      2.86559      12.4179      4.84354
    171 1 0      10.5075      27.7013      4.84354
    172 1 0       18.149      20.0594      4.84356
    173 1 0      14.3283      20.0594      4.84358
    174 1 0       18.149      27.7013      4.84358
    175 1 0       2.8656      27.7013      4.84359
    176 1 0      14.3283      27.7013      4.84359
    177 1 0      21.9699      4.77606      4.84363
    178 1 0      6.68651      4.77606      4.84363
    179 1 0      10.5075      4.77606      4.84363
    180 1 0      25.7908      4.77606      4.84363
    181 1 0      29.6117      27.7013      4.84363
    182 1 0      25.7908      12.4179      4.84366
    183 1 0      29.6117      20.0594      4.84366
    184 1 0       18.149      4.77606      4.84368
    185 1 0      14.3283      4.77604       4.8437
    186 1 0      6.68652      12.4179      4.84375
    187 1 0      21.9699      12.4179      4.84377
    188 1 0      10.5075      12.4179       4.8438
    189 1 0       18.149      12.4179      4.84384
    190 1 0      14.3283      12.4179      4.84389
    191 1 0      29.6117      4.77604      4.84394
    192 1 0      29.6117      12.4179      4.84408
    193 1 0      23.8804     0.955195      6.09506
    194 1 0      4.77604     0.955205      6.09506
    195 1 0     0.955215     0.955195      6.09506
    196 1 0      27.7013     0.955195      6.09506
    197 1 0      8.59699     0.955195      6.09507
    198 1 0      20.0595     0.955195      6.09511
    199 1 0      4.77604      23.8804      6.09511
    200 1 0      23.8804      23.8804      6.09511
    201 1 0     0.955215      23.8804      6.09511
    202 1 0      27.7013      23.8804      6.09511
    203 1 0      12.4179     0.955205      6.09513
    204 1 0      4.77604      8.59697      6.09513
    205 1 0      4.77604      16.2386      6.09513
    206 1 0      8.59699      23.8804      6.09513
    207 1 0     0.955215      8.59697      6.09513
    208 1 0      23.8804      8.59697      6.09513
    209 1 0      27.7013      8.59697      6.09513
    210 1 0     0.955215      16.2386      6.09513
    211 1 0      23.8804      16.2386      6.09513
    212 1 0      27.7013      16.2386      6.09513
    213 1 0      16.2386     0.955195      6.09514
    214 1 0      8.59699      8.59697      6.09516
    215 1 0      8.59699      16.2386      6.09516
    216 1 0      20.0595      23.8804      6.09516
    217 1 0      20.0595      8.59697      6.09518
    218 1 0      12.4179      23.8804      6.09518
    219 1 0      20.0595      16.2386      6.09518
    220 1 0      16.2386      23.8804       6.0952
    221 1 0      12.4179      8.59697       6.0952
    222 1 0      12.4179      16.2386       6.0952
    223 1 0      16.2386      8.59697      6.09523
    224 1 0      16.2386      16.2387      6.09523
    225 1 0      4.77604      20.0595      6.18987
    226 1 0      23.8804      20.0595      6.18987
    227 1 0      8.59699      20.0595      6.18989
    228 1 0      4.77606      27.7013      6.18989
    229 1 0      23.8804      27.7013      6.18989
    230 1 0      4.77604      4.77604      6.18989
    231 1 0      27.7013      20.0595      6.18989
    232 1 0      8.59699      27.7013      6.18989
    233 1 0      8.59699      4.77604      6.18991
    234 1 0      23.8804      4.77604      6.18991
    235 1 0      4.77602      12.4179      6.18991
    236 1 0     0.955245      20.0595      6.18991
    237 1 0      27.7013      27.7013      6.18991
    238 1 0     0.955225      27.7013      6.18992
    239 1 0     0.955265      4.77602      6.18992
    240 1 0      27.7012      4.77604      6.18992
    241 1 0      23.8804      12.4179      6.18992
    242 1 0      20.0595      20.0595      6.18992
    243 1 0      8.59699      12.4179      6.18994
    244 1 0      20.0595      27.7013      6.18994
    245 1 0      20.0595      4.77604      6.18994
    246 1 0     0.955285      12.4179      6.18994
    247 1 0      27.7012      12.4179      6.18994
    248 1 0      12.4179      20.0595      6.18996
    249 1 0      12.4179      27.7013      6.18996
    250 1 0      12.4179      4.77604      6.18997
    251 1 0      20.0595      12.4179      6.18997
    252 1 0      16.2386      20.0595      6.18997
    253 1 0      16.2386      27.7013      6.18999
    254 1 0      16.2386      4.77604      6.18999
    255 1 0      12.4179      12.4179      6.19001
    256 1 0      16.2386      12.4179      6.19003
    257 1 0     0.955195      2.85521      7.49493
    258 1 0      4.77604      2.85521      7.49493
    259 1 0      27.7013      2.85521      7.49493
    260 1 0     0.955215      29.6221      7.49493
    261 1 0      4.77604      29.6221      7.49493
    262 1 0      27.7013      29.6221      7.49493
    263 1 0      23.8804      2.85521      7.49495
    264 1 0     0.955205      25.7805      7.49495
    265 1 0      8.59698      2.85521      7.49496
    266 1 0      4.77604      25.7805      7.49496
    267 1 0      27.7013      25.7805      7.49496
    268 1 0      23.8804      29.6221      7.49496
    269 1 0     0.955195       10.497      7.49496
    270 1 0      27.7013       10.497      7.49496
    271 1 0     0.955205      21.9803      7.49496
    272 1 0      4.77604      21.9803      7.49496
    273 1 0      27.7013      21.9803      7.49496
    274 1 0      23.8804      25.7805      7.49496
    275 1 0      8.59698      29.6221      7.49496
    276 1 0     0.955205      6.69691      7.49498
    277 1 0      27.7013      6.69691      7.49498
    278 1 0      4.77604      6.69691      7.49498
    279 1 0      4.77604       10.497      7.49498
    280 1 0     0.955205      18.1386      7.49498
    281 1 0      23.8804      21.9803      7.49498
    282 1 0      20.0595      2.85521      7.49498
    283 1 0      23.8804      6.69691      7.49498
    284 1 0      23.8804       10.497      7.49498
    285 1 0      4.77604      18.1386      7.49498
    286 1 0      27.7013      18.1386      7.49498
    287 1 0      8.59698      25.7805      7.49498
    288 1 0     0.955195      14.3386        7.495
    289 1 0      27.7013      14.3386        7.495
    290 1 0      4.77604      14.3387        7.495
    291 1 0      23.8804      18.1386        7.495
    292 1 0      8.59698      21.9803        7.495
    293 1 0      20.0595      29.6221        7.495
    294 1 0      12.4178      2.85521        7.495
    295 1 0      8.59698      6.69691        7.495
    296 1 0      8.59698       10.497        7.495
    297 1 0      23.8804      14.3387        7.495
    298 1 0      20.0595      25.7805        7.495
    299 1 0      16.2386      2.85521      7.49502
    300 1 0      8.59698      18.1386      7.49502
    301 1 0      20.0595      21.9803      7.49502
    302 1 0      12.4178      29.6221      7.49502
    303 1 0      20.0595      6.69691      7.49503
    304 1 0      20.0595       10.497      7.49503
    305 1 0      8.59698      14.3387      7.49503
    306 1 0      12.4178      25.7805      7.49503
    307 1 0      16.2386      29.6221      7.49503
    308 1 0      20.0595      18.1386      7.49503
    309 1 0      12.4178      21.9803      7.49503
    310 1 0      16.2386      25.7805      7.49503
    311 1 0      12.4178      6.69691      7.49505
    312 1 0      12.4179       10.497      7.49505
    313 1 0      20.0595      14.3387      7.49505
    314 1 0      16.2386      21.9803      7.49505
    315 1 0      16.2386      6.69691      7.49505
    316 1 0      16.2386       10.497      7.49505
    317 1 0      12.4178      18.1386      7.49505
    318 1 0      12.4179      14.3386      7.49507
    319 1 0      16.2386      18.1386      7.49507
    320 1 0      16.2386      14.3386      7.49507
    321 1 0      2.86562      2.85758      8.85064
    322 1 0      2.86562      29.6197      8.85064
    323 1 0      6.68649      2.85758      8.85065
    324 1 0      29.6117      2.85758      8.85065
    325 1 0      25.7909      2.85758      8.85065
    326 1 0      6.68649      29.6197      8.85065
    327 1 0      25.7909      29.6197      8.85065
    328 1 0      29.6117      29.6197      8.85065
    329 1 0      21.9699      2.85758      8.85066
    330 1 0      21.9699      29.6197      8.85066
    331 1 0      2.86562      25.7828      8.85068
    332 1 0      6.68649      25.7828      8.85068
    333 1 0      25.7909      25.7828      8.85068
    334 1 0      29.6117      25.7828      8.85068
    335 1 0      2.86562       18.141      8.85069
    336 1 0      2.86562       21.978      8.85069
    337 1 0      25.7909       21.978      8.85069
    338 1 0      29.6117       21.978      8.85069
    339 1 0      10.5074      2.85758      8.85069
    340 1 0      2.86562      6.69454      8.85069
    341 1 0      25.7909      6.69454      8.85069
    342 1 0      29.6117      6.69454      8.85069
    343 1 0      2.86562      10.4994      8.85069
    344 1 0      25.7909      10.4994      8.85069
    345 1 0      2.86562      14.3363      8.85069
    346 1 0      6.68649       18.141      8.85069
    347 1 0      25.7909       18.141      8.85069
    348 1 0      29.6117       18.141      8.85069
    349 1 0      6.68649       21.978      8.85069
    350 1 0      21.9699      25.7828      8.85069
    351 1 0      10.5074      29.6197      8.85069
    352 1 0      6.68649      6.69454       8.8507
    353 1 0      6.68649      10.4994       8.8507
    354 1 0      29.6117      10.4994       8.8507
    355 1 0      25.7909      14.3363       8.8507
    356 1 0      29.6117      14.3363       8.8507
    357 1 0       18.149      2.85758      8.85071
    358 1 0      21.9699      6.69454      8.85071
    359 1 0      6.68649      14.3363      8.85071
    360 1 0      21.9699       18.141      8.85071
    361 1 0      21.9699       21.978      8.85071
    362 1 0       18.149      29.6197      8.85071
    363 1 0      14.3282      2.85758      8.85073
    364 1 0      21.9699      10.4994      8.85073
    365 1 0      21.9699      14.3363      8.85073
    366 1 0      10.5074      25.7828      8.85073
    367 1 0      14.3282      29.6197      8.85073
    368 1 0      10.5074       21.978      8.85074
    369 1 0      10.5074      6.69454      8.85074
    370 1 0      10.5074       18.141      8.85074
    371 1 0       18.149      25.7828      8.85074
    372 1 0      10.5074      10.4994      8.85075
    373 1 0      10.5074      14.3363      8.85075
    374 1 0      14.3282      25.7828      8.85075
    375 1 0       18.149      6.69454      8.85077
    376 1 0       18.149       18.141      8.85077
    377 1 0       18.149       21.978      8.85077
    378 1 0      14.3282      6.69454      8.85078
    379 1 0       18.149      10.4994      8.85078
    380 1 0       18.149      14.3363      8.85078
    381 1 0      14.3282       18.141      8.85078
    382 1 0      14.3282       21.978      8.85078
    383 1 0      14.3282      10.4994      8.85079
    384 1 0      14.3282      14.3363      8.85079
    385 1 0       2.8656      4.77604      10.2026
    386 1 0      25.7909      4.77604      10.2026
    387 1 0      29.6117      4.77604      10.2026
    388 1 0       2.8656      27.7013      10.2026
    389 1 0      25.7909      27.7013      10.2026
    390 1 0      29.6117      27.7013      10.2026
    391 1 0      6.68649      4.77604      10.2027
    392 1 0      10.5074      4.77604      10.2027
    393 1 0      14.3282      4.77604      10.2027
    394 1 0       18.149      4.77604      10.2027
    395 1 0      21.9699      4.77604      10.2027
    396 1 0       2.8656      12.4179      10.2027
    397 1 0      6.68649      12.4179      10.2027
    398 1 0      21.9699      12.4179      10.2027
    399 1 0      25.7909      12.4179      10.2027
    400 1 0      29.6117      12.4179      10.2027
    401 1 0       2.8656      20.0595      10.2027
    402 1 0      6.68649      20.0595      10.2027
    403 1 0      10.5074      20.0595      10.2027
    404 1 0      14.3282      20.0595      10.2027
    405 1 0       18.149      20.0595      10.2027
    406 1 0      21.9699      20.0595      10.2027
    407 1 0      25.7909      20.0595      10.2027
    408 1 0      29.6117      20.0595      10.2027
    409 1 0      6.68649      27.7013      10.2027
    410 1 0      10.5074      27.7013      10.2027
    411 1 0      14.3282      27.7013      10.2027
    412 1 0       18.149      27.7013      10.2027
    413 1 0      21.9699      27.7013      10.2027
    414 1 0      10.5074      12.4179      10.2028
    415 1 0      14.3282      12.4179      10.2028
    416 1 0       18.149      12.4179      10.2028
    417 1 0       2.8656     0.955205      10.2085
    418 1 0      6.68649     0.955205      10.2085
    419 1 0      10.5074     0.955205      10.2085
    420 1 0      21.9699     0.955205      10.2085
    421 1 0      25.7909     0.955205      10.2085
    422 1 0      29.6117     0.955205      10.2085
    423 1 0       2.8656      8.59699      10.2085
    424 1 0      25.7909      8.59699      10.2085
    425 1 0      29.6117      8.59699      10.2085
    426 1 0       2.8656      16.2386      10.2085
    427 1 0      29.6117      16.2386      10.2085
    428 1 0       2.8656      23.8804      10.2085
    429 1 0      6.68649      23.8804      10.2085
    430 1 0      25.7909      23.8804      10.2085
    431 1 0      29.6117      23.8804      10.2085
    432 1 0      14.3282     0.955205      10.2086
    433 1 0       18.149     0.955205      10.2086
    434 1 0      6.68649      8.59699      10.2086
    435 1 0      10.5074      8.59699      10.2086
    436 1 0      14.3282      8.59699      10.2086
    437 1 0       18.149      8.59699      10.2086
    438 1 0      21.9699      8.59699      10.2086
    439 1 0      6.68649      16.2386      10.2086
    440 1 0      10.5074      16.2386      10.2086
    441 1 0      14.3282      16.2386      10.2086
    442 1 0       18.149      16.2386      10.2086
    443 1 0      21.9699      16.2386      10.2086
    444 1 0      25.7909      16.2386      10.2086
    445 1 0      10.5074      23.8804      10.2086
    446 1 0      14.3282      23.8804      10.2086
    447 1 0       18.149      23.8804      10.2086
    448 1 0      21.9699      23.8804      10.2086
    449 1 0     0.955205      4.77604      11.5589
    450 1 0      4.77604      4.77604      11.5589
    451 1 0      8.59697      4.77604      11.5589
    452 1 0      23.8804      4.77604      11.5589
    453 1 0      27.7013      4.77604      11.5589
    454 1 0     0.955205      12.4179      11.5589
    455 1 0      27.7013      12.4179      11.5589
    456 1 0     0.955205      20.0595      11.5589
    457 1 0      4.77604      20.0595      11.5589
    458 1 0      23.8804      20.0595      11.5589
    459 1 0      27.7013      20.0595      11.5589
    460 1 0     0.955205      27.7013      11.5589
    461 1 0      4.77604      27.7013      11.5589
    462 1 0      8.59697      27.7013      11.5589
    463 1 0      20.0595      27.7013      11.5589
    464 1 0      23.8804      27.7013      11.5589
    465 1 0      27.7013      27.7013      11.5589
    466 1 0      12.4178      4.77604       11.559
    467 1 0      16.2386      4.77604       11.559
    468 1 0      20.0595      4.77604       11.559
    469 1 0      4.77604      12.4179       11.559
    470 1 0      8.59697      12.4179       11.559
    471 1 0      12.4178      12.4179       11.559
    472 1 0      16.2386      12.4179       11.559
    473 1 0      20.0595      12.4179       11.559
    474 1 0      23.8804      12.4179       11.559
    475 1 0      8.59697      20.0595       11.559
    476 1 0      12.4178      20.0595       11.559
    477 1 0      16.2386      20.0595       11.559
    478 1 0      20.0595      20.0595       11.559
    479 1 0      12.4178      27.7013       11.559
    480 1 0      16.2386      27.7013       11.559
    481 1 0     0.955205     0.955215      11.5619
    482 1 0      4.77602     0.955215      11.5619
    483 1 0      8.59697     0.955215      11.5619
    484 1 0      23.8804     0.955215      11.5619
    485 1 0      27.7013     0.955215      11.5619
    486 1 0     0.955205      23.8804      11.5619
    487 1 0      27.7013      23.8804      11.5619
    488 1 0      12.4178     0.955215       11.562
    489 1 0      16.2386     0.955215       11.562
    490 1 0      20.0595     0.955215       11.562
    491 1 0     0.955205      8.59699       11.562
    492 1 0      4.77604      8.59699       11.562
    493 1 0      8.59697      8.59699       11.562
    494 1 0      12.4178      8.59699       11.562
    495 1 0      16.2386      8.59699       11.562
    496 1 0      20.0595      8.59699       11.562
    497 1 0      23.8804      8.59699       11.562
    498 1 0      27.7013      8.59699       11.562
    499 1 0     0.955205      16.2387       11.562
    500 1 0      4.77604      16.2387       11.562
    501 1 0      8.59697      16.2387       11.562
    502 1 0      12.4178      16.2387       11.562
    503 1 0      16.2386      16.2387       11.562
    504 1 0      20.0595      16.2387       11.562
    505 1 0      23.8804      16.2387       11.562
    506 1 0      27.7013      16.2387       11.562
    507 1 0      4.77604      23.8804       11.562
    508 1 0      8.59697      23.8804       11.562
    509 1 0      12.4178      23.8804       11.562
    510 1 0      16.2386      23.8804       11.562
    511 1 0      20.0595      23.8804       11.562
    512 1 0      23.8804      23.8804       11.562
    513 1 0      4.77604      2.86596       12.915
    514 1 0     0.955205      2.86597       12.915
    515 1 0      23.8804      2.86597       12.915
    516 1 0      27.7013      2.86597       12.915
    517 1 0     0.955205      6.68614       12.915
    518 1 0      4.77604      6.68614       12.915
    519 1 0      23.8804      6.68614       12.915
    520 1 0      27.7013      6.68614       12.915
    521 1 0     0.955205      10.5078       12.915
    522 1 0     0.955205      14.3279       12.915
    523 1 0      27.7013      14.3279       12.915
    524 1 0     0.955205      18.1494       12.915
    525 1 0      27.7013      18.1494       12.915
    526 1 0     0.955205      21.9696       12.915
    527 1 0      4.77604      21.9696       12.915
    528 1 0      23.8804      21.9696       12.915
    529 1 0      27.7013      21.9696       12.915
    530 1 0     0.955205      25.7912       12.915
    531 1 0      4.77604      25.7912       12.915
    532 1 0      23.8804      25.7912       12.915
    533 1 0      27.7013      25.7912       12.915
    534 1 0     0.955205      29.6114       12.915
    535 1 0      4.77604      29.6114       12.915
    536 1 0      8.59697      29.6114       12.915
    537 1 0      23.8804      29.6114       12.915
    538 1 0      27.7013      29.6114       12.915
    539 1 0      8.59697      2.86597      12.9151
    540 1 0      12.4179      2.86597      12.9151
    541 1 0      16.2386      2.86597      12.9151
    542 1 0      20.0595      2.86597      12.9151
    543 1 0      8.59697      6.68614      12.9151
    544 1 0      12.4179      6.68614      12.9151
    545 1 0      16.2386      6.68614      12.9151
    546 1 0      20.0595      6.68614      12.9151
    547 1 0      4.77604      10.5078      12.9151
    548 1 0      8.59697      10.5078      12.9151
    549 1 0      12.4179      10.5078      12.9151
    550 1 0      16.2386      10.5078      12.9151
    551 1 0      20.0595      10.5078      12.9151
    552 1 0      23.8804      10.5078      12.9151
    553 1 0      27.7013      10.5078      12.9151
    554 1 0      4.77604      14.3279      12.9151
    555 1 0      8.59697      14.3279      12.9151
    556 1 0      12.4179      14.3279      12.9151
    557 1 0      16.2386      14.3279      12.9151
    558 1 0      20.0595      14.3279      12.9151
    559 1 0      23.8804      14.3279      12.9151
    560 1 0      4.77604      18.1494      12.9151
    561 1 0      8.59697      18.1494      12.9151
    562 1 0      12.4179      18.1494      12.9151
    563 1 0      16.2386      18.1494      12.9151
    564 1 0      20.0595      18.1494      12.9151
    565 1 0      23.8804      18.1494      12.9151
    566 1 0      8.59697      21.9696      12.9151
    567 1 0      12.4179      21.9696      12.9151
    568 1 0      16.2386      21.9696      12.9151
    569 1 0      20.0595      21.9696      12.9151
    570 1 0      8.59697      25.7912      12.9151
    571 1 0      12.4179      25.7912      12.9151
    572 1 0      16.2386      25.7912      12.9151
    573 1 0      20.0595      25.7912      12.9151
    574 1 0      12.4179      29.6114      12.9151
    575 1 0      16.2386      29.6114      12.9151
    576 1 0      20.0595      29.6114      12.9151
    577 1 0       2.8656      2.86589      14.2694
    578 1 0      6.68649      2.86589      14.2694
    579 1 0      25.7909      2.86589      14.2694
    580 1 0      29.6117      2.86589      14.2694
    581 1 0       2.8656      6.68623      14.2694
    582 1 0      25.7909      6.68623      14.2694
    583 1 0      29.6117      6.68623      14.2694
    584 1 0       2.8656       14.328      14.2694
    585 1 0      29.6117       14.328      14.2694