#Supplementary material S3 Initial configuration file for ReaxFF MD simulation of adiabatic decomposition of CL-20/N2O initiated at 800 K performed using LAMMPS

4800 atoms
4 atom types
 
0.00000 38.792000 xlo xhi
0.00000 26.847562 ylo yhi
0.00000 47.847988 zlo zhi

Masses

1 12.0000 # C
2 1.0080  # H
3 15.9990 # O
4 14.0000 # N

Atoms # charge

1 3 -0.327521 3.62531 1.83762 4.95939
2 3 -0.250096 2.7888 0.237259 6.25539
3 4 0.338224 3.73998 1.06699 5.99068
4 4 -0.123507 5.06632 0.894323 6.76658
5 1 0.0480584 4.91078 0.115965 8.06574
6 2 0.266022 4.75052 -0.950425 7.77649
7 4 -0.119829 6.33063 0.245107 8.72909
8 4 0.329078 7.36077 -0.743845 8.16782
9 3 -0.259209 6.95673 -1.86594 7.65125
10 3 -0.202324 8.6059 -0.443467 8.19757
11 1 0.0574964 6.60593 1.72398 8.42539
12 2 0.292794 7.74176 1.90732 8.3524
13 4 -0.124509 6.29307 2.62361 9.73237
14 4 0.341681 7.25886 2.29831 10.8937
15 3 -0.260988 8.44766 1.87407 10.6579
16 3 -0.285081 6.75068 2.20296 1.21E+01
17 1 0.0519893 4.81273 2.52416 10.0568
18 2 0.268101 4.75316 3.15169 10.9995
19 4 -0.136657 4.40831 1.10341 10.3974
20 4 0.298167 3.44444 0.965831 11.6062
21 3 -0.276864 2.76728 -0.14283 11.6649
22 3 -0.270753 3.64179 1.69601 1.26E+01
23 1 0.0417208 3.79375 0.596341 9.00256
24 2 0.250702 2.98177 -0.145728 9.11616
25 4 -0.171787 3.08059 1.83958 8.53675
26 4 0.319031 1.644 1.98729 8.94682
27 3 -0.228424 0.990276 3.10469 8.79315
28 3 -0.218649 1.05508 0.897986 9.28116
29 1 0.0737183 3.96747 3.03898 8.84162
30 2 0.236806 3.38406 3.93923 9.28265
31 4 -0.137342 4.88986 3.43323 7.69735
32 4 0.344065 4.17706 4.17624 6.56064
33 3 -0.253998 4.77267 4.40282 5.45124
34 3 -0.248358 2.93413 4.44897 6.71297
35 1 0.0623643 5.68809 2.22429 7.27471
36 2 0.277257 6.30057 2.6237 6.41621
37 3 -0.213978 9.32664 12.2899 10.4726
38 4 0.0376049 9.86155 13.7471 12.3944
39 3 -0.320133 0.588286 11.2331 16.9267
40 3 -0.24445 1.54814 12.9309 17.9632
41 4 0.331002 0.528539 12.1246 17.8309
42 4 -0.131987 -0.696243 12.2706 18.7361
43 1 0.0484042 -0.506368 13.1162 20.1436
44 2 0.25462 -0.414268 14.1884 19.8277
45 4 -0.132856 -1.85371 12.8719 20.6715
46 4 0.327107 -2.84842 13.8141 20.0464
47 3 -0.255012 -2.69679 15.0656 20.2302
48 3 -0.192236 -4.0058 13.365 19.69
49 1 0.0715032 -2.17149 11.4226 20.4176
50 2 0.288353 -3.31706 11.167 20.2859
51 4 -0.132225 -1.86423 10.562 21.7034
52 4 0.322202 -2.70831 10.9641 22.9206
53 3 -0.257058 -3.92561 11.3108 22.6906
54 3 -0.256129 -2.2318 11.137 24.1105
55 1 0.0621659 -0.410229 10.7171 22.029
56 2 0.257284 -0.208072 10.0164 2.29E+01
57 4 -0.152524 0.0919913 12.1264 22.4169
58 4 0.30194 1.08876 12.1756 23.5907
59 3 -0.249038 2.24283 12.7556 23.4416
60 3 -0.254103 0.730751 11.7942 2.48E+01
61 1 0.0541028 0.639566 12.6679 21.0825
62 2 0.240992 1.35627 13.5391 21.2622
63 4 -0.151224 1.3705 11.506 2.04E+01
64 4 0.328491 2.77259 11.1928 2.10E+01
65 3 -0.252918 3.18882 9.99538 20.9693
66 3 -0.19093 3.58098 12.1759 21.1774
67 1 0.0500982 0.445184 10.2875 20.8042
68 2 0.247413 1.10258 9.3848 20.9995
69 4 -0.144537 -0.376531 9.84195 19.6121
70 4 0.331653 0.415318 9.09971 18.4743
71 3 -0.240202 -0.234551 8.74294 17.3821
72 3 -0.246554 1.54664 8.58325 1.87E+01
73 1 0.0701309 -1.31457 10.9573 19.2002
74 2 0.261985 -1.94539 10.5132 18.3441
75 3 -0.253835 4.82547 1.44813 22.2857
76 4 0.0790156 4.4852 -0.189254 24.1102
77 3 -0.266237 5.0563 8.70926 6.54482
78 3 -0.282987 6.31231 7.15105 5.44398
79 4 0.323345 5.20869 7.77441 5.62522
80 4 -0.123845 3.97489 7.56476 4.70354
81 1 0.05054 4.31652 6.7688 3.3828
82 2 0.272352 4.50362 5.69587 3.66212
83 4 -0.122565 3.09574 6.8353 2.56935
84 4 0.333721 2.04171 5.78962 3.03834
85 3 -0.267327 2.34443 4.58844 3.34944
86 3 -0.255028 0.80577 6.05616 2.89217
87 1 0.0579578 2.61652 8.42128 2.89379
88 2 0.275718 1.48079 8.38438 3.07382
89 4 -0.134509 2.98841 9.37364 1.81074
90 4 0.338484 2.12035 9.0523 0.574959
91 3 -0.255035 0.875712 8.77046 0.762498
92 3 -0.285601 2.62597 9.10887 -0.592091
93 1 0.0572788 4.44689 9.38945 1.52644
94 2 0.250996 4.66491 10.0862 0.6479
95 4 -0.154501 4.90735 7.9404 1.17663
96 4 0.311051 5.745 7.73227 -0.0842453
97 3 -0.246727 6.62296 6.80265 -0.0819536
98 3 -0.232664 5.37642 8.27817 -1.18411
99 1 0.0638462 5.437 7.38349 2.47725
100 2 0.247269 6.29442 6.6339 2.23662
101 4 -0.160117 6.08529 8.58561 3.2117
102 4 0.321352 7.52155 8.83786 2.72E+00
103 3 -0.24631 8.08101 10.007 2.82141
104 3 -0.246743 8.15551 7.76514 2.39901
105 1 0.0566783 5.14412 9.7673 2.88856
106 2 0.239479 5.80792 10.6556 2.70359
107 4 -0.135099 4.12155 10.1322 3.92E+00
108 4 0.330084 4.68948 10.8203 5.16E+00
109 3 -0.24135 4.0355 11.0008 6.27121
110 3 -0.251948 5.89735 11.2411 5.17364
111 1 0.0525759 3.27533 8.80599 4.22356
112 2 0.264757 2.61104 9.23045 5.00898
113 3 -0.275785 8.70888 4.52074 18.569
114 3 -0.291461 7.52498 5.65495 17.1331
115 4 0.34489 8.6723 5.23548 17.4862
116 4 -0.14304 9.90123 5.42528 16.5894
117 1 0.0644207 9.57005 6.27313 15.3132
118 2 0.268914 9.32846 7.34384 15.5942
119 4 -0.146599 10.8717 6.17972 14.5953
120 4 0.352288 11.8948 7.27282 14.878
121 3 -0.27425 11.4247 8.34574 1.53E+01
122 3 -0.261333 13.1473 7.07631 14.6895
123 1 0.0647441 11.4136 4.84194 1.48E+01
124 2 0.278458 12.5765 4.83201 14.912
125 4 -0.133208 11.1557 3.8675 13.5116
126 4 0.349343 12.0281 4.24306 12.3199
127 3 -0.275401 13.3099 4.31246 1.24E+01
128 3 -0.31153 11.472 4.26185 11.1505
129 1 0.0599514 9.71147 3.8803 13.2279
130 2 0.253631 9.52487 3.2499 12.264
131 4 -0.146843 9.05309 5.3668 13.0171
132 4 0.30688 8.16519 5.49665 11.7681
133 3 -0.261227 7.40811 6.56802 11.7304
134 3 -0.285985 8.35943 4.64298 10.848
135 1 0.0514717 8.44702 5.70292 1.44E+01
136 2 0.233436 7.58554 6.38817 1.44E+01
137 4 -0.156806 7.79537 4.42293 1.48E+01
138 4 0.334044 6.38298 4.16618 14.2775
139 3 -0.241677 5.95625 2.95716 14.3289
140 3 -0.251697 5.64812 5.16796 13.9597
141 1 0.0487519 8.93632 3.33584 14.4199
142 2 0.249905 8.32829 2.36155 14.2066
143 4 -0.126486 9.86527 2.98987 15.5715
144 4 0.338062 9.13294 2.17042 16.6827
145 3 -0.258088 9.5261 2.2275 17.8804
146 3 -0.243984 8.11621 1.45322 16.3451
147 1 0.0674736 10.6581 4.21512 1.60E+01
148 2 0.268285 11.3224 3.99684 16.8938
149 3 -0.284834 5.09988 11.0699 18.5814
150 3 -0.289591 6.54246 12.2502 1.73E+01
151 4 0.339218 5.34911 11.818 17.5637
152 4 -0.148344 4.2102 12.0329 16.5503
153 1 0.0688741 4.39598 12.8014 1.52E+01
154 2 0.261376 4.50068 13.9507 15.4578
155 4 -0.146915 3.13065 12.5208 14.485
156 4 0.333142 2.09051 13.5651 14.8568
157 3 -0.271729 2.49772 14.7175 15.239
158 3 -0.252685 0.8437 13.4107 14.6109
159 1 0.0605368 2.70739 11.0829 1.48E+01
160 2 0.273159 1.61058 11.1162 15.0165
161 4 -0.123472 3.08897 10.1156 13.6692
162 4 0.322432 2.26542 10.3912 12.3993
163 3 -0.258346 1.08311 10.9114 12.5611
164 3 -0.277052 2.76283 10.1531 11.2511
165 1 0.0504628 4.5965 10.3334 13.3892
166 2 0.262439 4.8519 9.84671 12.3873
167 4 -0.168742 4.99864 11.7865 13.0138
168 4 0.305884 5.76069 12.0067 1.17E+01
169 3 -0.259419 6.6136 12.9511 11.6146
170 3 -0.251813 5.34627 11.3763 10.6484
171 1 0.0521589 5.57861 12.2688 14.2912
172 2 0.240251 6.33951 13.0536 14.0903
173 4 -0.144126 6.34358 11.0924 1.50E+01
174 4 0.316651 7.79195 10.8507 1.45E+01
175 3 -0.233062 8.38929 9.71087 14.6001
176 3 -0.214171 8.45186 11.7845 13.9243
177 1 0.0518032 5.43826 9.88842 14.605
178 2 0.232835 6.0893 9.0189 1.43E+01
179 4 -0.128416 4.50339 9.57126 15.7684
180 4 0.342424 5.20975 8.84779 16.9411
181 3 -0.263191 4.523 8.48774 17.9741
182 3 -0.269369 6.45348 8.63011 16.8682
183 1 0.0701878 3.56255 10.7631 16.0475
184 2 0.258412 2.81425 10.5584 16.913
185 3 -0.280944 8.91899 1.99354 6.75048
186 3 -0.297541 7.50949 1.1599 5.2146
187 4 0.341934 8.67941 1.50846 5.58656
188 4 -0.132735 9.86236 1.26026 4.59966
189 1 0.0739631 9.54867 0.426141 3.35468
190 2 0.256654 9.22936 -0.658181 3.64072
191 4 -0.14395 10.9046 0.524158 2.701
192 4 0.347003 11.918 -0.493681 3.15713
193 3 -0.280218 11.54 -1.66247 3.53931
194 3 -0.252749 13.1572 -0.262783 3.0552
195 1 0.0702144 11.3909 1.95544 2.84787
196 2 0.282741 12.5278 1.94503 2.96644
197 4 -0.130756 11.097 2.80753 1.61652
198 4 0.339081 12.0104 2.50943 0.388296
199 3 -0.265305 13.2041 2.12991 0.624171
200 3 -0.293915 11.5153 2.39603 -7.67E-01
201 1 0.0536346 9.57184 2.77128 1.34199
202 2 0.247745 9.40875 3.39525 0.361718
203 4 -0.149057 9.07086 1.29957 1.06337
204 4 0.311009 8.1634 1.09871 -0.18386
205 3 -0.270765 7.45524 0.0497208 -0.217667
206 3 -0.258148 8.35698 1.77077 -1.26E+00
207 1 0.0410198 8.4491 0.960077 2.37785
208 2 0.24239 7.5874 0.241183 2.19007
209 4 -0.128482 7.76792 2.24726 2.93409
210 4 0.319623 6.43091 2.48193 2.20425
211 3 -0.224565 5.73988 3.52891 2.50804
212 3 -0.264783 5.97096 1.60002 1.40892
213 1 0.040682 8.78253 3.29591 2.53867
214 2 0.233445 8.32707 4.27106 2.33861
215 4 -0.141071 9.72353 3.69062 3.72576
216 4 0.322028 8.90174 4.29694 4.8795
217 3 -0.252108 9.58798 4.67133 5.93923
218 3 -0.254518 7.62869 4.16928 4.89993
219 1 0.058702 10.5887 2.4758 4.11578
220 2 0.265049 11.2107 2.88178 4.89507
221 3 -0.302357 4.09594 4.68552 16.729
222 3 -0.262368 2.72814 5.81959 18.1308
223 4 0.330475 3.91619 5.37627 17.7886
224 4 -0.121699 5.09255 5.64179 18.7168
225 1 0.0698496 4.88549 6.52746 2.01E+01
226 2 0.270715 4.84555 7.66003 19.9016
227 4 -0.147351 6.21574 6.28548 20.7245
228 4 0.338828 7.32632 7.19968 2.03E+01
229 3 -0.265817 7.00451 8.43836 20.1244
230 3 -0.212949 8.51492 6.82894 2.00E+01
231 1 0.0589143 6.49552 4.79338 20.5519
232 2 0.278819 7.56503 4.61308 20.4156
233 4 -0.122586 6.15142 4.00025 21.8439
234 4 0.340162 6.98556 4.45318 23.0471
235 3 -0.278463 8.2447 4.6895 22.8627
236 3 -0.288205 6.4664 4.58091 24.1948
237 1 0.0596453 4.67235 4.27321 22.0816
238 2 0.273954 4.50482 3.7756 23.0932
239 4 -0.157373 4.27584 5.72225 2.24E+01
240 4 0.303911 3.2845 5.91096 23.5154
241 3 -0.257942 2.58961 7.01893 23.6031
242 3 -0.279915 3.27007 4.97761 24.3751
243 1 0.0376808 3.70755 6.16414 20.9534
244 2 0.245605 2.97584 6.97761 21.2028
245 4 -0.130885 2.8645 4.95921 2.05E+01
246 4 0.303695 1.49945 4.84101 21.1774
247 3 -0.194338 0.837024 3.7341 21.0544
248 3 -0.227978 0.855974 5.88658 21.4971
249 1 0.0550675 3.75836 3.78093 20.9081
250 2 0.259884 3.1284 2.89378 21.1846
251 4 -0.130361 4.65774 3.26873 19.7812
252 4 0.335143 3.93999 2.50317 18.6371
253 3 -0.247213 4.45559 2.37911 17.4669
254 3 -0.255372 2.68403 2.33215 18.7842
255 1 0.0613522 5.63875 4.36982 19.3265
256 2 0.266097 6.26708 3.92892 18.4829
257 3 -0.227612 9.44172 7.62453 2.23E+01
258 4 0.0510435 9.73205 6.23534 2.43E+01
259 3 -0.30648 0.340063 8.61402 4.95116
260 3 -0.271944 1.57936 7.10756 6.06592
261 4 0.320911 0.475766 7.75835 5.90236
262 4 -0.125181 -0.726859 7.36692 6.73552
263 1 0.0490343 -0.350389 6.42295 8.04679
264 2 0.278402 -0.160581 5.40873 7.67402
265 4 -0.129548 -1.65038 6.43787 8.71674
266 4 0.334509 -2.56926 5.40437 8.10057
267 3 -0.287518 -2.10726 4.22293 7.93318
268 3 -0.214654 -3.84469 5.64405 8.07398
269 1 0.0632019 -2.16407 8.07739 8.54955
270 2 0.270418 -3.35101 7.99057 8.35188
271 4 -0.135257 -1.88342 8.91811 9.73802
272 4 0.351749 -2.76212 8.7204 10.9621
273 3 -0.268972 -4.02242 8.3567 10.8781
274 3 -0.313858 -2.33734 9.07168 12.1095
275 1 0.055707 -0.333076 8.8298 10.0925
276 2 0.258574 -0.261693 9.54188 10.9643
277 4 -0.155514 0.163529 7.41429 10.3593
278 4 0.30419 1.1572 7.39751 11.5339
279 3 -0.25758 2.36776 7.04532 11.3151
280 3 -0.276131 0.741807 7.65059 12.7262
281 1 0.0561611 0.795113 6.90847 8.99614
282 2 0.240328 1.55911 6.11305 9.23562
283 4 -0.144971 1.44411 8.1059 8.39024
284 4 0.302891 2.87104 8.37684 8.83767
285 3 -0.191179 3.43061 9.55771 8.96037
286 3 -0.184863 3.63235 7.33464 8.91772
287 1 0.05114 0.428767 9.38701 8.89899
288 2 0.25622 1.21572 10.2051 9.16198
289 4 -0.119571 -0.433764 9.77925 7.77623
290 4 0.329184 0.285855 10.573 6.69E+00
291 3 -0.209774 -0.448266 11.0211 5.72161
292 3 -0.246109 1.47611 10.9867 6.91751
293 1 0.0486732 -1.41753 8.57468 7.34804
294 2 0.257917 -2.06779 9.03153 6.53907
295 3 -0.231272 4.93459 5.42708 10.6958
296 4 0.0415366 4.65633 7.08036 1.25E+01
297 4 0.274547 9.55158 13.1548 11.4044
298 4 0.278757 4.81489 0.542974 2.32E+01
299 4 0.288031 9.32377 6.9007 23.3808
300 4 0.282775 4.77115 6.14318 11.7672
301 3 -0.28759 13.6144 1.84842 4.82504
302 3 -0.242647 12.3881 0.489113 6.10417
303 4 0.323822 13.4999 1.08351 5.87346
304 4 -0.135171 14.7375 0.85519 6.77326
305 1 0.0495021 14.5588 -0.0632928 8.01304
306 2 0.270104 14.4292 -1.09296 7.61842
307 4 -0.122002 15.8736 0.00277318 8.73175
308 4 0.334365 16.9557 -0.907756 8.15584
309 3 -0.277008 16.6133 -2.05356 7.69734
310 3 -0.183399 18.1975 -0.518597 8.25276
311 1 0.0536639 16.2205 1.61967 8.54958
312 2 0.276934 17.2738 1.81491 8.3934
313 4 -0.123918 15.9487 2.3697 9.80057
314 4 0.335248 16.8181 1.82699 10.9759
315 3 -0.259417 17.9027 1.2578 10.6342
316 3 -0.322466 16.4982 2.02155 12.2102
317 1 0.0514215 14.4429 2.16275 10.1039
318 2 0.258328 14.2429 2.80749 11.0523
319 4 -0.160388 13.9916 0.756853 10.4139
320 4 0.291328 12.9071 0.760999 11.5154
321 3 -0.24927 12.1296 -0.259826 11.5906
322 3 -0.280615 12.8594 1.647 12.4366
323 1 0.0589163 13.4176 0.294452 9.01241
324 2 0.238303 12.7416 -0.65935 9.06213
325 4 -0.146369 12.5927 1.45305 8.52693
326 4 0.313307 11.168 1.57201 9.1266
327 3 -0.215174 10.5099 2.69615 9.15457
328 3 -0.224187 10.6528 0.475493 9.50538
329 1 0.0480596 13.5529 2.65536 8.93617
330 2 0.241611 12.8717 3.43044 9.37634
331 4 -0.123969 14.3728 3.22143 7.84619
332 4 0.332083 13.6277 3.91939 6.68496
333 3 -0.218907 14.2858 4.27718 5.61657
334 3 -0.254286 12.4109 4.21068 6.84384
335 1 0.0480024 15.3953 2.0933 7.37662
336 2 0.257978 15.9068 2.51287 6.49185
337 3 -0.228299 18.5105 11.968 10.3276
338 4 0.0922608 19.4588 13.5608 11.9633
339 3 -0.311563 10.502 10.8225 17.0576
340 3 -0.256918 11.4873 12.6015 18.0103
341 4 0.329614 10.4578 11.8114 17.8913
342 4 -0.12421 9.21895 12.1501 18.7319
343 1 0.0512157 9.4998 13.0096 2.00E+01
344 2 0.262597 9.75017 14.0736 19.7499
345 4 -0.135475 8.14901 13.0363 2.06E+01
346 4 0.337993 7.15295 14.0617 20.0846
347 3 -0.250902 7.49808 15.2536 19.7734
348 3 -0.215343 5.91357 13.7379 20.0487
349 1 0.0570554 7.59584 11.496 2.05E+01
350 2 0.275706 6.46865 11.5347 20.2631
351 4 -0.112013 7.83868 10.6646 21.6831
352 4 0.337963 6.936 11.0307 22.865
353 3 -0.251445 5.72738 11.4323 22.6103
354 3 -0.299557 7.24892 10.5606 24.0111
355 1 0.0525687 9.41358 10.6514 21.9828
356 2 0.265507 9.68919 10.036 22.8703
357 4 -0.159848 9.9046 12.0591 22.3127
358 4 0.30368 10.7739 12.0591 23.6093
359 3 -0.260336 11.7177 12.9102 2.37E+01
360 3 -0.271312 10.375 11.4731 24.6898
361 1 0.0521409 10.5858 12.4304 20.9765
362 2 0.240635 11.3797 13.2163 21.1268
363 4 -0.162087 11.1857 11.1403 2.04E+01
364 4 0.332972 12.6886 10.8556 20.6747
365 3 -0.248711 13.2048 9.67568 20.4957
366 3 -0.205664 13.4115 11.8351 21.0509
367 1 0.0539367 10.143 10.0818 20.7899
368 2 0.25435 10.7607 9.20385 21.0912
369 4 -0.124304 9.15524 9.72932 1.96E+01
370 4 0.343007 9.7881 8.85852 18.5573
371 3 -0.227586 9.22108 8.73724 17.3931
372 3 -0.233291 10.8968 8.25562 18.7273
373 1 0.0566435 8.35169 10.9689 1.92E+01
374 2 0.263423 7.68299 10.6702 18.3994
375 3 -0.219385 14.9384 1.19383 22.5393
376 4 0.0465806 14.0824 -0.493595 24.1429
377 3 -0.323018 15.1893 9.10599 6.15757
378 3 -0.281125 16.1806 7.4088 5.03666
379 4 0.338269 15.155 8.09837 5.3431
380 4 -0.12931 13.8479 7.93497 4.51171
381 1 0.0537028 14.0072 7.11786 3.22372
382 2 0.258112 14.2023 6.02691 3.46809
383 4 -0.135207 12.6392 7.20523 2.56454
384 4 0.337977 11.6947 6.13382 3.13991
385 3 -0.270075 12.2898 5.00701 3.46994
386 3 -0.251541 10.4497 6.25049 3.01462
387 1 0.0613684 12.2604 8.734 2.82749
388 2 0.281007 11.1378 8.79906 2.99882
389 4 -0.135477 12.5742 9.61211 1.59608
390 4 0.319205 11.6517 9.12377 0.454349
391 3 -0.264188 10.4151 8.92457 0.718816
392 3 -0.302803 12.0289 9.0796 -0.793889
393 1 0.0517915 14.0176 9.5546 1.25457
394 2 0.247627 14.1236 10.1209 0.289559
395 4 -0.155711 14.5613 8.08207 0.933044
396 4 0.294394 15.5831 8.02664 -0.228441
397 3 -0.251563 16.5073 7.10979 -0.16108
398 3 -0.241376 15.2318 8.45761 -1.39166
399 1 0.0459377 15.1314 7.62809 2.28253
400 2 0.238075 15.8614 6.81551 2.02377
401 4 -0.145644 15.7824 8.90928 2.85667
402 4 0.335163 17.2401 9.17561 2.41647
403 3 -0.259349 17.6377 10.3807 2.39417
404 3 -0.201856 18.0576 8.18874 2.23103
405 1 0.0567953 14.878 10.0817 2.43854
406 2 0.240852 15.4965 11.0032 2.18381
407 4 -0.127176 13.938 10.4252 3.58347
408 4 0.349278 14.6393 11.225 4.72762
409 3 -0.234736 14.0333 11.3647 5.82E+00
410 3 -0.251432 15.837 11.6401 4.52989
411 1 0.0655041 13.1165 9.17811 4.02964
412 2 0.267494 12.5516 9.65286 4.86633
413 3 -0.280431 18.7362 4.36941 1.84E+01
414 3 -0.270854 17.6862 5.92202 17.2501
415 4 0.337545 18.7183 5.1828 17.4341
416 4 -0.142144 19.8779 5.26438 16.446
417 1 0.0552125 19.6257 6.11884 15.2184
418 2 0.25208 19.4112 7.16111 15.5346
419 4 -0.11065 20.9119 5.87226 14.4392
420 4 0.324062 22.0938 6.77178 14.9342
421 3 -0.271215 21.8567 8.01966 15.1419
422 3 -0.241226 23.2893 6.34935 14.7776
423 1 0.0574747 21.226 4.34789 14.717
424 2 0.273072 22.3057 4.11241 14.8794
425 4 -0.13614 20.7709 3.53873 13.4888
426 4 0.353031 21.6732 3.72232 12.2492
427 3 -0.253028 22.9181 3.9518 12.4938
428 3 -0.298 21.2793 3.32777 11.1009
429 1 0.0545331 19.272 3.69858 13.1794
430 2 0.240427 18.9773 3.03522 12.2945
431 4 -0.147629 18.8436 5.20972 12.9366
432 4 0.306472 17.814 5.48978 11.8374
433 3 -0.277108 17.0844 6.54465 1.20E+01
434 3 -0.255432 17.7458 4.73788 10.8022
435 1 0.0516457 18.4062 5.6662 14.3223
436 2 0.235831 17.6889 6.53745 14.2299
437 4 -0.159942 17.6117 4.51803 1.49E+01
438 4 0.315535 16.0953 4.41867 14.7235
439 3 -0.230072 15.5417 3.30649 15.0754
440 3 -0.226812 15.373 5.4486 14.3978
441 1 0.0506067 18.4766 3.31257 14.4817
442 2 0.24095 17.7889 2.42177 14.3658
443 4 -0.141223 19.4393 2.8561 15.6109
444 4 0.33896 18.7142 2.21337 16.8183
445 3 -0.258553 19.3861 1.81127 17.843
446 3 -0.257964 17.5312 1.77906 16.6068
447 1 0.0619204 20.4663 3.92403 15.9915
448 2 0.26436 21.1037 3.52038 16.797
449 3 -0.288462 15.136 11.1689 18.3605
450 3 -0.259099 16.0394 12.6882 16.9555
451 4 0.336804 15.0712 11.8948 17.2994
452 4 -0.140412 13.7521 11.8958 16.5042
453 1 0.0570262 13.8559 12.7887 15.2134
454 2 0.25987 14.0013 13.8549 15.53
455 4 -0.132451 12.5299 12.6179 14.5728
456 4 0.317785 11.4143 13.5064 15.2309
457 3 -0.250811 11.7924 14.6449 15.6887
458 3 -0.230713 10.1901 13.1544 15.2673
459 1 0.0646647 12.2789 11.0578 1.48E+01
460 2 0.285697 11.1427 11.0727 1.50E+01
461 4 -0.124446 12.5172 10.2221 13.6044
462 4 0.332719 11.6296 10.6079 12.4158
463 3 -0.240517 10.4034 10.9747 12.63
464 3 -0.30362 12.0736 10.4844 11.2086
465 1 0.0490677 14.0768 10.3974 13.1752
466 2 0.254461 14.1902 9.76955 12.253
467 4 -0.152344 14.4625 11.8342 1.29E+01
468 4 0.302457 15.2891 12.0736 11.668
469 3 -0.251908 16.0709 13.0862 11.6127
470 3 -0.259613 15.0529 11.36 10.6136
471 1 0.0548408 15.0414 12.3343 14.2617
472 2 0.246491 15.6818 13.2001 14.0277
473 4 -0.157463 15.8323 11.1517 14.7516
474 4 0.328041 17.2901 11.195 1.43E+01
475 3 -0.218079 17.9927 10.0903 14.3021
476 3 -0.241903 17.7097 12.3085 13.8459
477 1 0.0483932 15.0006 9.93931 1.43E+01
478 2 0.241275 15.6648 9.13876 1.40E+01
479 4 -0.136987 14.1607 9.47885 15.5361
480 4 0.336701 14.9123 8.85205 16.7163
481 3 -0.278636 14.2966 8.60264 17.8243
482 3 -0.260509 16.1239 8.48779 16.6181
483 1 0.070455 13.2042 10.5728 1.60E+01
484 2 0.270312 12.5597 10.2072 16.8137
485 3 -0.273369 18.6857 2.03817 6.64971
486 3 -0.273834 17.3927 0.591194 5.54244
487 4 0.329527 18.5274 1.18205 5.71294
488 4 -0.119892 19.693 0.9432 4.73034
489 1 0.0561102 19.3246 0.0582072 3.38078
490 2 0.264497 19.1264 -1.01487 3.68948
491 4 -0.136693 20.6292 0.150023 2.70846
492 4 0.340261 21.6594 -0.849408 3.14671
493 3 -0.275715 21.34 -1.9878 3.62983
494 3 -0.250658 22.8795 -0.457548 3.03809
495 1 0.0690621 21.0918 1.60348 2.91479
496 2 0.283493 22.2149 1.75346 2.99817
497 4 -0.14594 20.7167 2.45742 1.68972
498 4 0.345711 21.5411 2.20075 0.394601
499 3 -0.269379 22.7732 1.79924 0.48388
500 3 -0.291056 21.0257 2.41948 -0.742241
501 1 0.0586094 19.2302 2.45076 1.49403
502 2 0.251257 19.0063 3.10752 5.53E-01
503 4 -0.156899 18.6844 1.016 1.16955
504 4 0.300937 17.6259 0.972556 0.0323302
505 3 -0.252225 17.713 1.81227 -0.934646
506 3 -0.237059 16.7016 0.0773505 0.0541523
507 1 0.0491916 18.1779 0.576991 2.51781
508 2 0.239461 17.3552 -0.166339 2.37213
509 4 -0.152883 17.4813 1.85829 3.15315
510 4 0.310797 16.1037 2.14084 2.56077
511 3 -0.228837 15.5534 3.28604 2.71011
512 3 -0.219356 15.5377 1.19981 1.88516
513 1 0.051124 18.4697 2.96703 2.78534
514 2 0.232383 17.8643 3.93935 2.59558
515 4 -0.148385 19.4593 3.34111 3.84988
516 4 0.337574 18.9172 4.21704 4.99886
517 3 -0.268418 19.589 4.40165 6.07684
518 3 -0.252537 17.8118 4.86142 4.89289
519 1 0.0649766 20.399 2.14837 4.20748
520 2 0.265615 21.1292 2.59056 4.9451
521 3 -0.30066 13.5335 4.54806 1.69E+01
522 3 -0.255624 12.496 6.16873 17.946
523 4 0.327519 13.5353 5.42971 17.7992
524 4 -0.143167 14.7985 5.64658 18.6796
525 1 0.0590836 14.5917 6.41022 19.9656
526 2 0.271328 14.3701 7.48524 19.5834
527 4 -0.123206 15.9435 6.25163 20.6993
528 4 0.338103 17.0313 7.22928 20.1902
529 3 -0.252829 16.8262 8.4736 2.03E+01
530 3 -0.229807 18.179 6.76522 19.7794
531 1 0.0543199 16.3066 4.76031 20.3974
532 2 0.278375 17.4415 4.70122 20.1962
533 4 -0.115516 16.0008 3.92102 21.6599
534 4 0.348673 16.9214 4.09501 2.29E+01
535 3 -0.269496 18.1592 4.41797 2.27E+01
536 3 -0.309465 16.5273 3.76072 24.0558
537 1 0.0586648 14.4969 4.0411 21.9541
538 2 0.267119 14.3414 3.44639 22.9302
539 4 -0.168163 13.9985 5.47748 22.2546
540 4 0.300266 13.0801 5.62316 23.4951
541 3 -0.266828 12.2614 6.59826 2.35E+01
542 3 -0.288377 13.4387 5.06601 24.6169
543 1 0.054487 13.399 5.91501 2.09E+01
544 2 0.2463 12.685 6.72728 2.12E+01
545 4 -0.150164 12.6477 4.75946 20.3657
546 4 0.32695 11.2264 4.54574 20.9326
547 3 -0.239954 10.6866 3.37577 20.8867
548 3 -0.213577 10.6172 5.54315 21.4486
549 1 0.0540261 13.6502 3.58299 2.08E+01
550 2 0.249033 13.1286 2.62522 21.0303
551 4 -0.139403 14.5394 3.1707 19.6043
552 4 0.337695 13.8495 2.43251 18.457
553 3 -0.222652 14.5378 2.13022 17.4025
554 3 -0.237053 12.6138 2.10635 18.5649
555 1 0.0662438 15.4639 4.35586 19.1932
556 2 0.257683 16.1516 3.9006 18.3754
557 3 -0.24376 18.5071 7.9719 2.21E+01
558 4 0.102206 19.1613 6.35556 23.8169
559 3 -0.326642 10.5142 8.37779 4.95248
560 3 -0.249731 11.5329 6.88691 6.24204
561 4 0.351508 10.4827 7.51697 5.92256
562 4 -0.138711 9.23747 7.45974 6.82E+00
563 1 0.0528902 9.42976 6.62332 8.21888
564 2 0.258968 9.79486 5.55213 7.98761
565 4 -0.111169 8.05834 6.65313 8.81E+00
566 4 0.331637 7.05046 5.66458 8.20511
567 3 -0.261138 7.46687 4.46287 7.9325
568 3 -0.215164 5.79667 5.93566 8.23008
569 1 0.0576752 7.65045 8.19041 8.47095
570 2 0.274688 6.52827 8.34731 8.17266
571 4 -0.12352 7.81817 9.13535 9.6095
572 4 0.353034 6.79173 8.8662 10.7712
573 3 -0.22288 5.57176 8.56778 10.4528
574 3 -0.321 7.04034 9.24109 11.957
575 1 0.0500244 9.30221 9.11347 10.0381
576 2 0.263997 9.38162 9.757 10.9279
577 4 -0.148553 9.80005 7.7204 10.5247
578 4 0.284105 10.7201 7.73224 11.7535
579 3 -0.258973 11.7088 6.90505 11.8591
580 3 -0.248264 10.3316 8.42181 12.7835
581 1 0.0428376 10.4603 7.21483 9.19141
582 2 0.242076 11.2013 6.38608 9.4591
583 4 -0.148607 11.1726 8.41561 8.58184
584 4 0.314136 12.6189 8.5522 9.0888
585 3 -0.209934 13.2442 9.66962 9.01105
586 3 -0.227979 13.278 7.51006 9.48034
587 1 0.0568953 10.2092 9.62324 8.88666
588 2 0.259352 10.7624 10.5564 9.20323
589 4 -0.128373 9.35688 9.99263 7.72526
590 4 0.329262 10.1651 10.6462 6.62228
591 3 -0.244556 9.63115 10.8578 5.457
592 3 -0.24836 11.3329 11.0949 6.89344
593 1 0.054418 8.52356 8.62946 7.29472
594 2 0.248697 7.89514 9.02397 6.44068
595 3 -0.2167 14.9098 5.2154 10.3364
596 4 0.0818894 14.4681 6.70393 12.2432
597 4 0.266332 18.8644 12.8817 1.12E+01
598 4 0.261963 14.5454 0.170231 23.2654
599 4 0.240989 18.7434 7.00699 2.29E+01
600 4 0.261807 14.6121 6.12699 11.1839
601 3 -0.319957 23.2863 1.76778 4.74735
602 3 -0.262463 22.085 0.267299 5.91608
603 4 0.338409 23.1873 0.918716 5.69329
604 4 -0.137144 24.414 0.714891 6.58853
605 1 0.0565156 24.2139 -0.122644 7.8899
606 2 0.273098 24.0948 -1.19993 7.55439
607 4 -0.124847 25.4978 0.0579534 8.63829
608 4 0.324793 26.5179 -0.937221 8.079
609 3 -0.256077 26.1455 -2.14141 7.81699
610 3 -0.194131 27.76 -0.665722 8.21864
611 1 0.0700427 25.9171 1.52513 8.40749
612 2 0.280002 27.0751 1.64057 8.32149
613 4 -0.128429 25.57 2.40965 9.5894
614 4 0.335651 26.4145 2.14786 10.8361
615 3 -0.250349 27.6524 1.74644 10.7311
616 3 -0.273092 25.8777 2.30193 11.9998
617 1 0.0675612 24.0747 2.2927 9.87875
618 2 0.278164 23.8217 2.88066 10.7922
619 4 -0.164658 23.6676 0.849395 10.1131
620 4 0.307743 22.7426 0.631282 11.3105
621 3 -0.282529 22.0884 -0.476191 11.415
622 3 -0.263138 22.7836 1.45475 12.2783
623 1 0.0594609 23.0721 0.349127 8.86826
624 2 0.244637 22.3427 -0.497534 9.1421
625 4 -0.14993 22.2925 1.56698 8.23347
626 4 0.309009 20.8913 1.82623 8.81023
627 3 -0.227137 20.3437 3.00354 8.80669
628 3 -0.198545 20.1456 0.818841 9.0942
629 1 0.054771 23.2633 2.71665 8.59524
630 2 0.253491 22.6077 3.63643 8.79855
631 4 -0.123075 24.2161 3.15149 7.46987
632 4 0.32956 23.5985 3.85366 6.24018
633 3 -0.242856 24.3335 4.11905 5.21084
634 3 -0.249606 22.3978 4.29524 6.33249
635 1 0.0623019 25.1198 1.97417 7.10407
636 2 0.262461 25.7569 2.27049 6.21668
637 3 -0.251126 28.6804 11.6821 10.1707
638 4 0.0767246 29.0991 13.3349 11.9617
639 3 -0.310603 19.8209 11.4321 16.6658
640 3 -0.257237 21.0283 12.6922 18.0374
641 4 0.332845 19.943 12.0357 17.7735
642 4 -0.155566 18.7434 12.0535 18.7333
643 1 0.0402939 18.8974 12.9428 2.01E+01
644 2 0.265891 19.0577 13.9784 19.6075
645 4 -0.12014 17.5434 12.8691 20.7179
646 4 0.31399 16.5486 13.7406 19.9687
647 3 -0.224671 16.8556 14.9247 19.5977
648 3 -0.195561 15.3479 13.2494 19.7949
649 1 0.0546961 17.3188 11.2917 2.04E+01
650 2 0.285568 16.2051 11.2218 2.02E+01
651 4 -0.0942706 17.5592 10.4236 21.6157
652 4 0.339453 16.6594 10.7976 2.28E+01
653 3 -0.258514 15.5163 11.3282 22.5271
654 3 -0.300149 17.0562 10.5828 24.0089
655 1 0.0514554 19.1187 10.6342 21.9865
656 2 0.26604 19.2918 9.95239 22.8556
657 4 -0.156118 19.5464 12.0541 22.359
658 4 0.305894 20.4302 12.3902 23.5844
659 3 -0.263329 21.1318 13.4594 23.6433
660 3 -0.25822 20.3495 11.6122 24.6225
661 1 0.0603736 20.0436 12.5403 20.9854
662 2 0.235807 20.6516 13.5302 21.1411
663 4 -0.143692 20.864 11.3505 20.4547
664 4 0.314493 22.276 11.1137 21.0501
665 3 -0.231824 22.7524 9.92942 20.9386
666 3 -0.244128 22.8152 12.0261 21.8194
667 1 0.0557115 19.9619 10.1395 20.8272
668 2 0.257244 20.579 9.19614 21.0921
669 4 -0.138648 19.1004 9.65027 1.97E+01
670 4 0.326369 19.8851 8.90271 18.5747
671 3 -0.258017 19.4154 8.66793 17.3843
672 3 -0.255274 21.0465 8.45486 18.8645
673 1 0.0723196 18.1476 10.7826 1.92E+01
674 2 0.256036 17.5737 10.2672 1.83E+01
675 3 -0.256467 24.0197 0.895539 22.0949
676 4 0.0642957 23.9306 -0.596426 24.0819
677 3 -0.323077 25.0987 8.65365 6.21795
678 3 -0.27159 25.9445 7.00629 4.99659
679 4 0.352183 24.9345 7.71628 5.34657
680 4 -0.155166 23.6359 7.5674 4.58681
681 1 0.0516957 23.7733 6.81716 3.2296
682 2 0.262304 24.0189 5.78613 3.63659
683 4 -0.124613 22.4127 6.92556 2.61424
684 4 0.322735 21.3823 5.98023 3.22049
685 3 -0.256333 21.634 4.73889 3.48289
686 3 -0.238634 20.1577 6.39323 3.36571
687 1 0.0521587 22.0426 8.50866 2.98027
688 2 0.286484 20.9237 8.59071 3.20013
689 4 -0.127989 22.2181 9.49337 1.83856
690 4 0.336299 21.2988 9.18401 0.639176
691 3 -0.234975 20.0658 8.98683 0.926893
692 3 -0.284915 21.7404 9.45473 -0.547877
693 1 0.0464779 23.7069 9.41318 1.47099
694 2 0.247451 23.8331 10.1173 0.588344
695 4 -0.147544 24.1362 7.92794 0.982034
696 4 0.290281 24.9916 7.92885 -0.295946
697 3 -0.251982 26.1321 7.36685 -0.353995
698 3 -0.232834 24.6027 8.64774 -1.28986
699 1 0.0596353 24.8353 7.40312 2.20085
700 2 0.240252 25.5629 6.55097 1.88057
701 4 -0.149164 25.563 8.55706 2.82877
702 4 0.330223 27.0227 8.78241 2.42984
703 3 -0.234388 27.6204 9.90199 2.65272
704 3 -0.233949 27.7285 7.72026 2.17809
705 1 0.0391431 24.5599 9.84163 2.64469
706 2 0.233538 25.131 10.7009 2.35485
707 4 -0.126947 23.7048 10.198 3.80578
708 4 0.341706 24.5168 10.8905 4.91684
709 3 -0.260513 23.9737 11.0305 6.07768
710 3 -0.252171 25.7381 11.2377 4.69743
711 1 0.0661848 22.8881 8.86475 4.17658
712 2 0.258236 22.2788 9.08855 5.1407
713 3 -0.299457 28.2148 4.45306 18.4764
714 3 -0.259004 26.989 5.79378 17.2156
715 4 0.351437 28.1078 5.20457 17.4624
716 4 -0.150996 29.2632 5.3644 16.4284
717 1 0.0615069 29.0781 6.10323 15.1343
718 2 0.256057 28.7143 7.14585 15.4628
719 4 -0.112378 30.4332 6.01542 14.4765
720 4 0.332809 31.4202 7.08269 14.9946
721 3 -0.268041 30.9516 8.14881 15.5721
722 3 -0.23917 32.6687 6.89765 14.7298
723 1 0.0530076 30.8038 4.49349 14.8312
724 2 0.278899 31.924 4.30008 14.911
725 4 -0.145216 30.4989 3.51621 13.7014
726 4 0.351486 31.4099 3.61957 12.4586
727 3 -0.277742 32.6029 4.00036 12.6397
728 3 -0.30233 31.0618 3.01999 11.3849
729 1 0.0530074 29.0506 3.60489 13.3477
730 2 0.251052 28.7727 3.08694 12.3785
731 4 -0.154942 28.5471 5.10155 12.9304
732 4 0.282326 27.6183 5.13181 11.7128
733 3 -0.224882 26.7195 6.0385 11.5956
734 3 -0.26057 28.0547 4.49882 10.6388
735 1 0.0529123 27.904 5.56353 14.2051
736 2 0.239622 27.1324 6.41074 14.0739
737 4 -0.168998 27.1845 4.34516 14.8024
738 4 0.308708 25.8254 4.0922 14.1389
739 3 -0.225912 25.0689 3.09589 14.4166
740 3 -0.212766 25.2851 5.06566 13.4688
741 1 0.0505919 28.1697 3.1713 14.5745
742 2 0.233072 27.4005 2.31882 14.3898
743 4 -0.127578 29.0773 2.81817 15.707
744 4 0.316855 28.4006 2.14228 16.8711
745 3 -0.21735 29.0496 1.9464 17.9971
746 3 -0.249985 27.4047 1.37637 16.5918
747 1 0.062621 30.0049 4.11407 16.0623
748 2 0.260949 30.7379 3.91901 16.8925
749 3 -0.281387 24.7011 11.0509 18.3
750 3 -0.245045 25.5742 12.8704 17.3448