ITEM: TIMESTEP
0
ITEM: NUMBER OF ATOMS
4800
ITEM: BOX BOUNDS pp pp pp
0.0000000000000000e+00 3.8792000000000002e+01
0.0000000000000000e+00 2.6847562000000000e+01
0.0000000000000000e+00 4.7847988000000001e+01
ITEM: ATOMS id type q xu yu zu
1 3 -0.327481 3.62531 1.83762 4.95939
2 3 -0.250154 2.7888 0.237259 6.25539
3 4 0.338207 3.73998 1.06699 5.99068
4 4 -0.123527 5.06632 0.894323 6.76658
31 4 -0.137429 4.88986 3.43323 7.69735
32 4 0.344076 4.17706 4.17624 6.56064
33 3 -0.253971 4.77267 4.40282 5.45124
34 3 -0.248379 2.93413 4.44897 6.71297
35 1 0.0622875 5.68809 2.22429 7.27471
36 2 0.277258 6.30057 2.6237 6.41621
82 2 0.272356 4.50362 5.69587 3.66212
84 4 0.333715 2.04171 5.78962 3.03834
85 3 -0.267341 2.34443 4.58844 3.34944
86 3 -0.25504 0.80577 6.05616 2.89217
100 2 0.247242 6.29442 6.6339 2.23662
210 4 0.319592 6.43091 2.48193 2.20425
211 3 -0.224659 5.73988 3.52891 2.50804
212 3 -0.264728 5.97096 1.60002 1.40892
1088 4 -0.131186 38.9851 1.00687 4.72945
1091 4 -0.142228 40.0084 0.218682 2.66364
1095 1 0.0635144 40.4639 1.71599 2.91654
1096 2 0.281099 41.5926 1.87483 3.06142
1097 4 -0.130689 40.1478 2.61835 1.71966
1098 4 0.334691 41.0045 2.18646 0.53293
1099 3 -0.26544 42.2889 2.03951 0.713992
1115 4 -0.125349 38.8438 3.45874 3.77842
1117 3 -0.260366 38.978 4.28204 6.06247
1119 1 0.0582221 39.7397 2.19921 4.17018
1120 2 0.270789 40.4861 2.45886 4.91739
2642 3 -0.253305 3.91398 4.93236 48.6379
185 3 -0.280986 8.91899 1.99354 6.75048
186 3 -0.297514 7.50949 1.1599 5.2146
187 4 0.341939 8.67941 1.50846 5.58656
188 4 -0.132693 9.86236 1.26026 4.59966
189 1 0.0739299 9.54867 0.426141 3.35468
191 4 -0.143985 10.9046 0.524158 2.701
195 1 0.0701648 11.3909 1.95544 2.84787
196 2 0.282731 12.5278 1.94503 2.96644
197 4 -0.13082 11.097 2.80753 1.61652
198 4 0.339392 12.0104 2.50943 0.388296
201 1 0.0536294 9.57184 2.77128 1.34199
202 2 0.247212 9.40875 3.39525 0.361718
203 4 -0.149002 9.07086 1.29957 1.06337
207 1 0.0410251 8.4491 0.960077 2.37785
208 2 0.242432 7.5874 0.241183 2.19007
209 4 -0.128441 7.76792 2.24726 2.93409
213 1 0.0406617 8.78253 3.29591 2.53867
214 2 0.233406 8.32707 4.27106 2.33861
215 4 -0.14111 9.72353 3.69062 3.72576
216 4 0.32204 8.90174 4.29694 4.8795
217 3 -0.252068 9.58798 4.67133 5.93923
218 3 -0.254524 7.62869 4.16928 4.89993
219 1 0.0586996 10.5887 2.4758 4.11578
220 2 0.265084 11.2107 2.88178 4.89507
302 3 -0.242666 12.3881 0.489113 6.10417
334 3 -0.254284 12.4109 4.21068 6.84384
384 4 0.337981 11.6947 6.13382 3.13991
385 3 -0.270093 12.2898 5.00701 3.46994
386 3 -0.251578 10.4497 6.25049 3.01462
567 3 -0.261106 7.46687 4.46287 7.9325
2636 3 -0.304465 7.00781 4.37529 47.8848
2658 4 0.0405898 9.32953 6.13578 48.2185
2942 3 -0.262493 12.4594 5.16881 48.1444
199 3 -0.265335 13.2041 2.12991 0.624171
301 3 -0.287554 13.6144 1.84842 4.82504
303 4 0.323835 13.4999 1.08351 5.87346
304 4 -0.135201 14.7375 0.85519 6.77326
331 4 -0.123977 14.3728 3.22143 7.84619
332 4 0.332054 13.6277 3.91939 6.68496
333 3 -0.218861 14.2858 4.27718 5.61657
335 1 0.0479932 15.3953 2.0933 7.37662
336 2 0.257973 15.9068 2.51287 6.49185
382 2 0.258129 14.2023 6.02691 3.46809
485 3 -0.273398 18.6857 2.03817 6.64971
486 3 -0.273836 17.3927 0.591194 5.54244
487 4 0.329528 18.5274 1.18205 5.71294
489 1 0.0561002 19.3246 0.0582072 3.38078
501 1 0.0586498 19.2302 2.45076 1.49403
502 2 0.251276 19.0063 3.10752 0.553
503 4 -0.156921 18.6844 1.016 1.16955
504 4 0.30093 17.6259 0.972556 0.0323302
506 3 -0.237046 16.7016 0.0773505 0.0541523
507 1 0.0491917 18.1779 0.576991 2.51781
509 4 -0.152883 17.4813 1.85829 3.15315
510 4 0.310806 16.1037 2.14084 2.56077
511 3 -0.228819 15.5534 3.28604 2.71011
512 3 -0.219358 15.5377 1.19981 1.88516
513 1 0.0511237 18.4697 2.96703 2.78534
514 2 0.232391 17.8643 3.93935 2.59558
516 4 0.337588 18.9172 4.21704 4.99886
518 3 -0.252547 17.8118 4.86142 4.89289
863 1 0.053381 18.8076 6.67665 7.89342
864 2 0.271994 18.9674 5.59815 7.49412
867 3 -0.269333 16.6438 4.64639 7.95702
868 3 -0.233629 15.1572 6.33368 7.81435
2936 3 -0.267008 15.7951 4.09308 48.1353
77 3 -0.266193 5.0563 8.70926 6.54482
78 3 -0.283018 6.31231 7.15105 5.44398
79 4 0.32336 5.20869 7.77441 5.62522
80 4 -0.123859 3.97489 7.56476 4.70354
81 1 0.050505 4.31652 6.7688 3.3828
83 4 -0.122545 3.09574 6.8353 2.56935
87 1 0.0579421 2.61652 8.42128 2.89379
88 2 0.275732 1.48079 8.38438 3.07382
89 4 -0.134468 2.98841 9.37364 1.81074
90 4 0.33847 2.12035 9.0523 0.574959
91 3 -0.255035 0.875712 8.77046 0.762498
93 1 0.057289 4.44689 9.38945 1.52644
94 2 0.250997 4.66491 10.0862 0.6479
95 4 -0.154493 4.90735 7.9404 1.17663
99 1 0.0639162 5.437 7.38349 2.47725
101 4 -0.160345 6.08529 8.58561 3.2117
105 1 0.0568044 5.14412 9.7673 2.88856
106 2 0.23946 5.80792 10.6556 2.70359
107 4 -0.135187 4.12155 10.1322 3.92
108 4 0.329529 4.68948 10.8203 5.16
109 3 -0.240926 4.0355 11.0008 6.27121
110 3 -0.251809 5.89735 11.2411 5.17364
111 1 0.0526001 3.27533 8.80599 4.22356
112 2 0.264703 2.61104 9.23045 5.00898
259 3 -0.306584 0.340063 8.61402 4.95116
260 3 -0.271917 1.57936 7.10756 6.06592
261 4 0.32089 0.475766 7.75835 5.90236
290 4 0.329671 0.285855 10.573 6.69
292 3 -0.246206 1.47611 10.9867 6.91751
1206 2 0.275046 4.60147 12.2152 7.87621
2292 4 0.327359 41.3573 12.7365 3.18873
2293 3 -0.262111 40.957 11.5768 3.59
2294 3 -0.230905 42.6147 12.9095 2.94013
2460 3 -0.265885 0.812185 11.3828 48.593
3676 4 0.0740995 4.44454 12.7111 48.0423
102 4 0.321336 7.52155 8.83786 2.72
103 3 -0.246338 8.08101 10.007 2.82141
104 3 -0.246589 8.15551 7.76514 2.39901
383 4 -0.135204 12.6392 7.20523 2.56454
387 1 0.0613666 12.2604 8.734 2.82749
388 2 0.281016 11.1378 8.79906 2.99882
389 4 -0.135467 12.5742 9.61211 1.59608
390 4 0.31919 11.6517 9.12377 0.454349
391 3 -0.264144 10.4151 8.92457 0.718816
412 2 0.267533 12.5516 9.65286 4.86633
559 3 -0.326653 10.5142 8.37779 4.95248
560 3 -0.249764 11.5329 6.88691 6.24204
561 4 0.351476 10.4827 7.51697 5.92256
562 4 -0.138966 9.23747 7.45974 6.82
589 4 -0.128446 9.35688 9.99263 7.72526
590 4 0.329221 10.1651 10.6462 6.62228
591 3 -0.244573 9.63115 10.8578 5.457
592 3 -0.248396 11.3329 11.0949 6.89344
593 1 0.0545178 8.52356 8.62946 7.29472
594 2 0.248641 7.89514 9.02397 6.44068
1390 2 0.252978 10.0553 12.5143 3.51432
1392 4 0.33169 12.4514 13.0342 3.11618
1393 3 -0.298019 12.199 11.7802 3.28507
1408 2 0.240051 8.22646 12.9723 2.29565
2754 3 -0.279136 7.18353 10.321 48.0377
2760 3 -0.272348 10.4777 11.5383 48.5528
377 3 -0.323067 15.1893 9.10599 6.15757
378 3 -0.281148 16.1806 7.4088 5.03666
379 4 0.338241 15.155 8.09837 5.3431
380 4 -0.129277 13.8479 7.93497 4.51171
381 1 0.0537304 14.0072 7.11786 3.22372
393 1 0.051814 14.0176 9.5546 1.25457
394 2 0.247634 14.1236 10.1209 0.289559
395 4 -0.155695 14.5613 8.08207 0.933044
399 1 0.0459469 15.1314 7.62809 2.28253
400 2 0.23808 15.8614 6.81551 2.02377
401 4 -0.145617 15.7824 8.90928 2.85667
402 4 0.335166 17.2401 9.17561 2.41647
403 3 -0.259366 17.6377 10.3807 2.39417
404 3 -0.201854 18.0576 8.18874 2.23103
405 1 0.056775 14.878 10.0817 2.43854
406 2 0.240839 15.4965 11.0032 2.18381
407 4 -0.127242 13.938 10.4252 3.58347
408 4 0.350195 14.6393 11.225 4.72762
409 3 -0.235472 14.0333 11.3647 5.82
410 3 -0.251593 15.837 11.6401 4.52989
411 1 0.0655644 13.1165 9.17811 4.02964
862 4 -0.117925 18.5625 7.50714 6.61011
889 4 -0.125429 18.8269 9.88556 7.66039
891 3 -0.24418 18.8821 10.9129 5.41186
893 1 0.0611244 17.8435 8.7647 7.2
894 2 0.276889 17.1174 9.24624 6.44835
1506 2 0.268221 14.7288 12.4631 7.90394
1509 3 -0.258425 16.839 11.6226 7.79137
1690 2 0.271398 19.327 12.421 3.85367
1708 2 0.243122 17.4833 13.0252 2.44453
3976 4 0.0434682 14.2573 12.9301 48.0998
1201 3 -0.308567 3.91805 15.0283 4.93274
1202 3 -0.250016 2.75843 13.6549 6.2596
1203 4 0.336549 3.84376 14.2819 5.97602
1204 4 -0.143221 5.05684 14.0019 6.85391
1231 4 -0.138777 4.93901 16.5072 7.73062
1232 4 0.334772 4.3022 17.2215 6.49728
1233 3 -0.24199 5.01064 17.4096 5.4523
1234 3 -0.25401 3.04575 17.4843 6.54777
1235 1 0.0651937 5.75896 15.2397 7.38834
1236 2 0.25825 6.44828 15.6115 6.52344
1282 2 0.253489 4.88697 19.3787 3.94669
1284 4 0.336226 2.10325 19.5938 3.37831
1285 3 -0.250592 2.46587 18.4553 3.8873
1286 3 -0.234899 0.92158 19.7506 2.9947
1300 2 0.239814 6.37568 20.0338 2.34838
1411 3 -0.20748 5.7256 15.9917 2.85657
1412 3 -0.23167 6.07518 14.0035 1.91191
2288 4 -0.137307 39.1763 14.5622 4.57318
2289 1 0.0614526 38.9827 13.6462 3.30025
2291 4 -0.120642 40.3068 13.6947 2.66855
2295 1 0.0493729 40.7095 15.3436 2.88016
2296 2 0.281739 41.7972 15.3632 3.16451
2297 4 -0.130374 40.402 16.1365 1.60338
2298 4 0.345855 41.343 15.6544 0.48367
2299 3 -0.242291 42.447 15.0901 0.853835
2301 1 0.0551754 38.8957 16.0589 1.28065
2315 4 -0.132105 38.9496 17.0426 3.58968
2317 3 -0.242234 38.8471 18.1377 5.74658
2319 1 0.051482 39.8833 15.8072 4.01496
2320 2 0.268453 40.4698 16.2048 4.86987
3842 3 -0.261256 3.94733 17.828 48.5092
4758 4 0.0104766 38.844 19.0673 48.4177
1385 3 -0.255022 9.13508 15.4361 6.57542
1386 3 -0.268432 7.94958 14.0509 5.26215
1387 4 0.318034 9.09942 14.6374 5.55153
1388 4 -0.131278 10.3067 14.537 4.67527
1389 1 0.0539887 10.0894 13.6123 3.26328
1391 4 -0.137341 11.328 13.9688 2.61284
1395 1 0.0654062 11.5718 15.4932 2.88459
1396 2 0.271155 12.6841 15.7573 3.09282
1397 4 -0.130109 11.1369 16.2599 1.60609
1398 4 0.333227 11.9345 15.8895 0.339569
1401 1 0.0480082 9.66917 15.9148 1.33451
1402 2 0.252817 9.32822 16.4983 0.386428
1403 4 -0.146291 9.36975 14.4035 1.00714
1407 1 0.0497221 8.84668 13.9487 2.39221
1409 4 -0.141591 8.01147 15.0205 3.02687
1410 4 0.309579 6.51311 15.0012 2.59692
1413 1 0.0436255 8.79623 16.3043 2.53254
1414 2 0.233584 8.07727 17.1246 2.21116
1415 4 -0.146964 9.64972 16.8835 3.63328
1416 4 0.332124 8.96395 17.7017 4.75482
1417 3 -0.243291 9.54717 17.8532 5.90354
1418 3 -0.253219 7.86572 18.3089 4.53835
1419 1 0.0624988 10.7473 15.8674 4.12215
1420 2 0.258607 11.3517 16.3757 4.99318
1502 3 -0.232003 12.8119 13.7529 6.10398
1534 3 -0.251365 12.5547 17.9959 6.88492
1584 4 0.324712 11.5655 19.8689 3.1993
1585 3 -0.271961 11.7935 18.6392 3.54672
1764 2 0.26294 9.50773 19.1743 7.85222
1767 3 -0.225632 7.20664 18.2353 7.87421
3836 3 -0.30804 6.967 17.3488 47.9298
3858 4 0.0519063 9.67459 19.4701 48.3652
1394 3 -0.237509 13.6095 13.5187 3.28813
1399 3 -0.261692 13.1998 15.6956 0.45116
1501 3 -0.290681 13.8 15.482 5.07267
1503 4 0.326847 13.7546 14.6229 6.0294
1504 4 -0.128033 14.991 14.3765 6.91121
1531 4 -0.111432 14.5399 16.8735 7.84366
1532 4 0.325642 13.7724 17.628 6.73243
1533 3 -0.220983 14.4117 17.9885 5.65895
1535 1 0.0486678 15.5778 15.651 7.45398
1536 2 0.261196 16.1747 16.1395 6.57219
1582 2 0.255716 14.0306 19.6207 3.71832
1600 2 0.24107 15.8433 20.1296 2.202
1685 3 -0.299145 18.6333 15.5312 6.63408
1686 3 -0.255864 17.416 13.9465 5.62835
1687 4 0.338486 18.4969 14.6571 5.72781
1701 1 0.0498739 19.2326 15.7901 1.44202
1702 2 0.254909 18.9614 16.3427 0.460767
1703 4 -0.153686 18.793 14.2665 1.21778
1707 1 0.0635591 18.2135 13.8945 2.56816
1709 4 -0.156275 17.459 15.1128 3.04106
1710 4 0.331335 16.0439 15.2871 2.45497
1711 3 -0.222875 15.3967 16.3545 2.69226
1712 3 -0.249361 15.586 14.346 1.7082
1713 1 0.0517607 18.4214 16.2685 2.63383
1714 2 0.236283 17.7472 17.1683 2.34125
1715 4 -0.135565 19.3236 16.7777 3.75936
1716 4 0.335196 18.677 17.4848 4.95011
1718 3 -0.26985 17.443 17.7908 4.93723
2064 2 0.252546 18.6662 18.9384 7.79114
4136 3 -0.275739 16.2706 17.0969 48.1041
4142 3 -0.25017 13.1856 18.4235 48.3858
4158 4 0.0763227 19.3252 19.5619 48.2595
6 2 0.266009 4.75052 -0.950425 7.77649
1092 4 0.334632 41.0336 -0.823721 3.07406
1093 3 -0.280599 40.7164 -2.05901 3.30614
1094 3 -0.246235 42.2814 -0.504379 3.23136
1277 3 -0.313239 5.49161 22.507 6.46824
1279 4 0.337822 5.54299 21.5925 5.6029
1280 4 -0.14802 4.32631 21.336 4.73325
1281 1 0.0595799 4.5775 20.4096 3.53076
1283 4 -0.134611 3.16909 20.5466 2.88144
1287 1 0.0659565 2.78049 22.0178 2.97708
1288 2 0.279585 1.67908 22.149 3.19989
1289 4 -0.122032 3.01206 22.7738 1.67617
1290 4 0.337629 2.07188 22.1937 0.579703
1291 3 -0.250988 0.874093 22.0396 0.952456
1293 1 0.0542257 4.5242 22.6731 1.42641
1294 2 0.248974 4.75428 23.2795 0.524438
1295 4 -0.149993 5.00549 21.2526 1.17243
1299 1 0.046784 5.65004 20.8915 2.54903
1301 4 -0.145042 6.402 22.1724 2.97939
1305 1 0.0470315 5.35598 23.2685 2.58539
1306 2 0.247115 6.07288 24.1011 2.25601
1307 4 -0.150411 4.48324 23.783 3.6813
1308 4 0.349767 5.24348 24.6354 4.71174
1309 3 -0.25845 4.70449 25.0526 5.81241
1310 3 -0.268524 6.42088 25.0268 4.3725
1311 1 0.0717528 3.64593 22.5698 4.19949
1312 2 0.252698 2.98154 23.0912 5.0239
1459 3 -0.318286 0.804786 21.8288 5.18132
1460 3 -0.246952 1.69819 20.16 6.39897
1461 4 0.342474 0.719084 20.8918 6.10657
1490 4 0.331883 0.310368 23.9834 6.5804
1492 3 -0.243201 1.26205 24.7359 6.94748
2476 4 0.068445 4.61159 -0.341939 48.0799
3660 3 -0.278281 1.18527 24.6731 48.3135
9 3 -0.259219 6.95673 -1.86594 7.65125
190 2 0.25666 9.22936 -0.658181 3.64072
192 4 0.346995 11.918 -0.493681 3.15713
193 3 -0.280198 11.54 -1.66247 3.53931
1278 3 -0.294676 6.65276 20.9601 5.37483
1302 4 0.315361 7.71403 22.3222 2.21272
1303 3 -0.222785 8.37187 23.4399 2.37805
1304 3 -0.248102 8.14931 21.3108 1.54244
1583 4 -0.124335 12.6386 20.7351 2.58124
1586 3 -0.232648 10.3439 20.2965 3.17753
1587 1 0.0561919 12.2868 22.417 2.80207
1588 2 0.282031 11.1929 22.6188 2.81379
1589 4 -0.14062 12.771 23.1889 1.51265
1590 4 0.315233 12.0268 22.6362 0.284251
1591 3 -0.249813 10.8322 22.2137 0.54145
1612 2 0.284656 12.5423 23.3586 4.83836
1759 3 -0.326052 10.7699 22.2497 5.34735
1760 3 -0.242203 11.2903 20.2414 6.2351
1761 4 0.356316 10.4488 21.1834 5.98232
1762 4 -0.138973 9.17738 21.0947 6.83041
1789 4 -0.133042 9.32717 23.513 7.73121
1790 4 0.352406 9.85891 24.3333 6.55833
1791 3 -0.243765 9.20491 24.5047 5.48007
1792 3 -0.230306 10.9335 25.0131 6.80018
1793 1 0.0690126 8.42871 22.3206 7.33431
1794 2 0.267637 7.75617 22.7214 6.45916
3954 3 -0.322205 7.0474 24.0253 48.0158
3960 3 -0.260826 10.3107 24.6164 48.5036
194 3 -0.252722 13.1572 -0.262783 3.0552
306 2 0.270084 14.4292 -1.09296 7.61842
309 3 -0.277018 16.6133 -2.05356 7.69734
490 2 0.264495 19.1264 -1.01487 3.68948
508 2 0.239457 17.3552 -0.166339 2.37213
1577 3 -0.298443 15.1036 22.7425 6.2237
1578 3 -0.283819 15.8118 20.8265 5.3569
1579 4 0.334643 14.8994 21.6981 5.4685
1580 4 -0.140045 13.6626 21.5566 4.6011
1581 1 0.0525002 13.9163 20.6537 3.3027
1593 1 0.0534926 14.2253 22.9212 1.30654
1594 2 0.256616 14.4835 23.5029 0.321699
1595 4 -0.150641 14.6264 21.3634 1.06873
1599 1 0.0518239 15.1485 21.0059 2.41918
1601 4 -0.150313 15.8958 22.2566 2.97275
1602 4 0.335221 17.3089 22.4659 2.36862
1603 3 -0.265003 17.7623 23.6553 2.51927
1604 3 -0.224894 17.839 21.6215 1.56331
1605 1 0.0598759 15.0096 23.4394 2.52765
1606 2 0.236316 15.6412 24.3453 2.24077
1607 4 -0.155004 14.1022 23.9686 3.59746
1608 4 0.347646 14.6444 24.8042 4.76644
1609 3 -0.286137 13.8945 24.911 5.7942
1610 3 -0.243114 15.8188 25.39 4.742
1611 1 0.067826 13.068 22.815 4.02243
2062 4 -0.140138 18.4769 20.9735 6.78154
2089 4 -0.129223 18.8908 23.3372 7.74983
2091 3 -0.249713 19.0883 24.2979 5.51569
2093 1 0.0752198 17.894 22.3251 7.26129
2094 2 0.272908 17.2965 22.7896 6.3388
2776 4 0.085326 13.9572 -0.35887 47.8678
4254 3 -0.295067 16.9168 23.7023 47.9545
5 1 0.0480491 4.91078 0.115965 8.06574
7 4 -0.119922 6.33063 0.245107 8.72909
13 4 -0.123723 6.29307 2.62361 9.73237
17 1 0.0516422 4.81273 2.52416 10.0568
18 2 0.26831 4.75316 3.15169 10.9995
19 4 -0.137396 4.40831 1.10341 10.3974
20 4 0.302975 3.44444 0.965831 11.6062
22 3 -0.274125 3.64179 1.69601 12.6
23 1 0.0417631 3.79375 0.596341 9.00256
25 4 -0.171791 3.08059 1.83958 8.53675
26 4 0.319071 1.644 1.98729 8.94682
27 3 -0.228424 0.990276 3.10469 8.79315
28 3 -0.218632 1.05508 0.897986 9.28116
29 1 0.0738647 3.96747 3.03898 8.84162
30 2 0.236924 3.38406 3.93923 9.28265
138 4 0.333921 6.38298 4.16618 14.2775
139 3 -0.240922 5.95625 2.95716 14.3289
140 3 -0.251523 5.64812 5.16796 13.9597
282 2 0.240328 1.55911 6.11305 9.23562
295 3 -0.231154 4.93459 5.42708 10.6958
300 4 0.283096 4.77115 6.14318 11.7672
568 3 -0.215184 5.79667 5.93566 8.23008
1017 1 0.0557451 38.949 6.33157 15.3113
1019 4 -0.106345 40.2402 6.23772 14.6336
1023 1 0.0542695 40.589 4.57701 14.9651
1024 2 0.281511 41.7575 4.46383 15.0912
1025 4 -0.139595 40.2569 3.65227 13.8698
1026 4 0.332675 41.0634 3.86728 12.5983
1027 3 -0.252249 42.333 4.12167 12.7
1028 3 -0.297287 40.5366 3.9659 11.4373
1354 2 0.260403 4.31438 27.5864 15.5295
1356 4 0.311892 1.80525 27.2378 15.1
1357 3 -0.279238 2.04498 28.4242 15.5224
1358 3 -0.243761 0.563681 26.9324 14.9613
11 1 0.0575446 6.60593 1.72398 8.42539
12 2 0.2929 7.74176 1.90732 8.3524
14 4 0.330774 7.25886 2.29831 10.8937
15 3 -0.25898 8.44766 1.87407 10.6579
16 3 -0.276666 6.75068 2.20296 12.1
117 1 0.0637742 9.57005 6.27313 15.3132
119 4 -0.147398 10.8717 6.17972 14.5953
123 1 0.0653685 11.4136 4.84194 14.8
124 2 0.276632 12.5765 4.83201 14.912
125 4 -0.134901 11.1557 3.8675 13.5116
126 4 0.350204 12.0281 4.24306 12.3199
128 3 -0.310576 11.472 4.26185 11.1505
129 1 0.0598148 9.71147 3.8803 13.2279
130 2 0.253705 9.52487 3.2499 12.264
131 4 -0.144479 9.05309 5.3668 13.0171
132 4 0.306811 8.16519 5.49665 11.7681
133 3 -0.260291 7.40811 6.56802 11.7304
134 3 -0.285931 8.35943 4.64298 10.848
135 1 0.0496746 8.44702 5.70292 14.4
136 2 0.233557 7.58554 6.38817 14.4
137 4 -0.156577 7.79537 4.42293 14.8
141 1 0.0488128 8.93632 3.33584 14.4199
142 2 0.250422 8.32829 2.36155 14.2066
143 4 -0.127227 9.86527 2.98987 15.5715
320 4 0.291268 12.9071 0.760999 11.5154
322 3 -0.280113 12.8594 1.647 12.4366
325 4 -0.146373 12.5927 1.45305 8.52693
326 4 0.313328 11.168 1.57201 9.1266
327 3 -0.215225 10.5099 2.69615 9.15457
328 3 -0.224266 10.6528 0.475493 9.50538
330 2 0.241859 12.8717 3.43044 9.37634
563 1 0.0531197 9.42976 6.62332 8.21888
564 2 0.258918 9.79486 5.55213 7.98761
565 4 -0.111346 8.05834 6.65313 8.81
566 4 0.33169 7.05046 5.66458 8.20511
582 2 0.2421 11.2013 6.38608 9.4591
1238 4 0.0754163 9.33839 26.9799 12.3
1656 4 0.322616 11.7953 27.453 15.2
1657 3 -0.244345 12.3222 28.4988 15.7619
1658 3 -0.235212 10.5644 27.4795 14.7456
127 3 -0.27664 13.3099 4.31246 12.4
307 4 -0.121997 15.8736 0.00277318 8.73175
311 1 0.0536639 16.2205 1.61967 8.54958
312 2 0.276936 17.2738 1.81491 8.3934
313 4 -0.123895 15.9487 2.3697 9.80057
314 4 0.335241 16.8181 1.82699 10.9759
315 3 -0.259413 17.9027 1.2578 10.6342
316 3 -0.32234 16.4982 2.02155 12.2102
317 1 0.0514258 14.4429 2.16275 10.1039
318 2 0.259039 14.2429 2.80749 11.0523
319 4 -0.16042 13.9916 0.756853 10.4139
323 1 0.0589632 13.4176 0.294452 9.01241
329 1 0.0480986 13.5529 2.65536 8.93617
429 1 0.0545393 19.272 3.69858 13.1794
430 2 0.240456 18.9773 3.03522 12.2945
431 4 -0.14691 18.8436 5.20972 12.9366
432 4 0.307084 17.814 5.48978 11.8374
433 3 -0.278338 17.0844 6.54465 12
434 3 -0.256121 17.7458 4.73788 10.8022
435 1 0.0539104 18.4062 5.6662 14.3223
436 2 0.236412 17.6889 6.53745 14.2299
437 4 -0.163638 17.6117 4.51803 14.9
438 4 0.317484 16.0953 4.41867 14.7235
439 3 -0.231005 15.5417 3.30649 15.0754
440 3 -0.227512 15.373 5.4486 14.3978
441 1 0.0524666 18.4766 3.31257 14.4817
442 2 0.240901 17.7889 2.42177 14.3658
595 3 -0.216194 14.9098 5.2154 10.3364
596 4 0.0826245 14.4681 6.70393 12.2432
600 4 0.26207 14.6121 6.12699 11.1839
866 4 0.350334 16.3298 5.87002 8.02307
1654 2 0.268136 14.3487 27.5133 15.6231
153 1 0.0697538 4.39598 12.8014 15.2
155 4 -0.145923 3.13065 12.5208 14.485
158 3 -0.252566 0.8437 13.4107 14.6109
159 1 0.0582333 2.70739 11.0829 14.8
160 2 0.273598 1.61058 11.1162 15.0165
161 4 -0.122472 3.08897 10.1156 13.6692
162 4 0.32244 2.26542 10.3912 12.3993
163 3 -0.258224 1.08311 10.9114 12.5611
164 3 -0.27713 2.76283 10.1531 11.2511
165 1 0.0493601 4.5965 10.3334 13.3892
166 2 0.262102 4.8519 9.84671 12.3873
167 4 -0.169289 4.99864 11.7865 13.0138
168 4 0.302884 5.76069 12.0067 11.7
170 3 -0.249071 5.34627 11.3763 10.6484
171 1 0.0504361 5.57861 12.2688 14.2912
172 2 0.240378 6.33951 13.0536 14.0903
173 4 -0.13866 6.34358 11.0924 15
177 1 0.0514031 5.43826 9.88842 14.605
178 2 0.232195 6.0893 9.0189 14.3
179 4 -0.127299 4.50339 9.57126 15.7684
277 4 -0.155528 0.163529 7.41429 10.3593
278 4 0.304167 1.1572 7.39751 11.5339
279 3 -0.257563 2.36776 7.04532 11.3151
280 3 -0.276263 0.741807 7.65059 12.7262
281 1 0.0561273 0.795113 6.90847 8.99614
283 4 -0.144988 1.44411 8.1059 8.39024
284 4 0.302933 2.87104 8.37684 8.83767
285 3 -0.191286 3.43061 9.55771 8.96037
286 3 -0.184859 3.63235 7.33464 8.91772
287 1 0.0511485 0.428767 9.38701 8.89899
288 2 0.25626 1.21572 10.2051 9.16198
296 4 0.0408572 4.65633 7.08036 12.5
573 3 -0.223112 5.57176 8.56778 10.4528
1018 2 0.277651 38.7979 7.44138 15.6593
1020 4 0.329706 41.2971 7.12805 15.2815
1021 3 -0.280203 40.9239 8.25866 15.7
1022 3 -0.24379 42.5476 6.86505 15.0263
1205 1 0.050832 4.78273 13.2742 8.23708
1207 4 -0.122447 6.12614 13.3258 8.9076
1224 2 0.243339 2.93879 12.9846 9.36426
37 3 -0.213895 9.32664 12.2899 10.4726
118 2 0.26866 9.32846 7.34384 15.5942
120 4 0.356271 11.8948 7.27282 14.878
121 3 -0.27726 11.4247 8.34574 15.3
169 3 -0.258223 6.6136 12.9511 11.6146
174 4 0.313465 7.79195 10.8507 14.5
175 3 -0.231907 8.38929 9.71087 14.6001
176 3 -0.212306 8.45186 11.7845 13.9243
297 4 0.274376 9.55158 13.1548 11.4044
455 4 -0.131919 12.5299 12.6179 14.5728
458 3 -0.230898 10.1901 13.1544 15.2673
459 1 0.0649649 12.2789 11.0578 14.8
460 2 0.285729 11.1427 11.0727 15
461 4 -0.120879 12.5172 10.2221 13.6044
462 4 0.33294 11.6296 10.6079 12.4158
463 3 -0.238665 10.4034 10.9747 12.63
464 3 -0.303738 12.0736 10.4844 11.2086
569 1 0.0577033 7.65045 8.19041 8.47095
570 2 0.274672 6.52827 8.34731 8.17266
571 4 -0.123529 7.81817 9.13535 9.6095
572 4 0.353202 6.79173 8.8662 10.7712
574 3 -0.321688 7.04034 9.24109 11.957
575 1 0.0500868 9.30221 9.11347 10.0381
576 2 0.263958 9.38162 9.757 10.9279
577 4 -0.148537 9.80005 7.7204 10.5247
578 4 0.283643 10.7201 7.73224 11.7535
579 3 -0.258618 11.7088 6.90505 11.8591
580 3 -0.246541 10.3316 8.42181 12.7835
581 1 0.0428457 10.4603 7.21483 9.19141
583 4 -0.148576 11.1726 8.41561 8.58184
584 4 0.314165 12.6189 8.5522 9.0888
587 1 0.0569293 10.2092 9.62324 8.88666
588 2 0.25935 10.7624 10.5564 9.20323
1208 4 0.33463 7.08132 12.2133 8.41945
1209 3 -0.259636 6.65666 11.0335 8.29262
1210 3 -0.229408 8.26079 12.5705 8
1521 3 -0.270002 12.2493 13.2786 11.546
1524 2 0.255305 12.8468 13.117 9.3937
122 3 -0.262644 13.1473 7.07631 14.6895
337 3 -0.2233 18.5105 11.968 10.3276
453 1 0.0571015 13.8559 12.7887 15.2134
465 1 0.049184 14.0768 10.3974 13.1752
466 2 0.255176 14.1902 9.76955 12.253
467 4 -0.150967 14.4625 11.8342 12.9
468 4 0.304376 15.2891 12.0736 11.668
469 3 -0.252451 16.0709 13.0862 11.6127
470 3 -0.259688 15.0529 11.36 10.6136
471 1 0.0521841 15.0414 12.3343 14.2617
472 2 0.246761 15.6818 13.2001 14.0277
473 4 -0.15695 15.8323 11.1517 14.7516
474 4 0.328802 17.2901 11.195 14.3
475 3 -0.218738 17.9927 10.0903 14.3021
476 3 -0.243442 17.7097 12.3085 13.8459
477 1 0.0452025 15.0006 9.93931 14.3
478 2 0.242546 15.6648 9.13876 14
479 4 -0.136517 14.1607 9.47885 15.5361
585 3 -0.20993 13.2442 9.66962 9.01105
586 3 -0.22792 13.278 7.51006 9.48034
597 4 0.261652 18.8644 12.8817 11.2
865 4 -0.124224 17.4331 6.8178 8.57682
869 1 0.0469585 17.059 8.34722 8.41625
870 2 0.274208 15.9638 8.37088 8.28279
871 4 -0.110932 17.4939 9.23923 9.63131
872 4 0.350503 16.6585 9.00125 10.9
873 3 -0.276435 15.4577 8.60036 10.6534
874 3 -0.298904 17.0823 9.37911 12.0243
875 1 0.0535177 18.9768 8.97007 9.99033
876 2 0.268955 19.2195 9.56252 10.9502
877 4 -0.153979 19.3416 7.52476 10.2395
1508 4 0.335595 17.1654 12.742 8.32945
1510 3 -0.208297 18.3095 13.2674 8.00341
154 2 0.261268 4.50068 13.9507 15.4578
156 4 0.332876 2.09051 13.5651 14.8568
157 3 -0.27173 2.49772 14.7175 15.239
1213 4 -0.121114 6.28751 15.7486 9.75414
1217 1 0.05708 4.76541 15.7398 10.0775
1218 2 0.265476 4.57975 16.4239 10.951
1219 4 -0.147138 4.30065 14.3337 10.4652
1220 4 0.283925 3.2988 14.3691 11.6623
1221 3 -0.251033 2.3342 13.5147 11.7229
1222 3 -0.260558 3.65619 15.0212 12.7224
1223 1 0.0493101 3.66567 13.8264 9.14727
1225 4 -0.146633 2.95853 15.047 8.49148
1226 4 0.320655 1.51027 15.3098 8.9281
1227 3 -0.253483 0.98755 16.3807 8.5326
1228 3 -0.208709 0.7895 14.3755 9.48962
1229 1 0.0553924 3.95095 16.1875 8.8368
1230 2 0.239107 3.34262 17.1545 8.99927
1339 3 -0.211436 5.84748 16.9439 14.5453
1340 3 -0.226631 5.85742 19.1702 14.1046
1482 2 0.238597 1.35924 19.5067 9.39405
1495 3 -0.242565 5.48689 18.3901 10.6318
1500 4 0.272041 4.96926 19.394 11.2102
1768 3 -0.221875 5.7301 19.8404 8.01872
2217 1 0.0522662 39.0748 19.6419 15.329
2219 4 -0.136052 40.4137 19.582 14.6541
2223 1 0.0582675 40.9244 18.0981 14.9932
2224 2 0.284949 42.044 18.1376 15.0285
2225 4 -0.134006 40.6065 17.1251 13.8949
2226 4 0.345717 41.4525 17.3858 12.6575
2227 3 -0.264296 42.6431 17.8549 12.7457
2228 3 -0.320884 40.8982 17.2 11.5131
2229 1 0.0603688 39.0494 17.152 13.5712
2230 2 0.243481 38.9126 16.4634 12.6674
38 4 0.0376993 9.86155 13.7471 12.3944
456 4 0.317506 11.4143 13.5064 15.2309
457 3 -0.250786 11.7924 14.6449 15.6887
1211 1 0.0603177 6.58142 14.7659 8.62481
1212 2 0.271958 7.73699 14.7865 8.51971
1214 4 0.345189 7.16288 15.6915 11.0358
1215 3 -0.290272 8.44182 15.4728 10.9404
1216 3 -0.286288 6.63454 15.7826 12.2027
1317 1 0.0554758 9.90237 19.8105 15.1207
1319 4 -0.127385 11.2686 19.627 14.559
1323 1 0.0606146 11.493 18.0989 14.8422
1324 2 0.269689 12.6149 18.0495 15.0867
1325 4 -0.146549 11.16 17.165 13.6531
1326 4 0.34932 12.0282 17.3536 12.4256
1328 3 -0.323328 11.7166 16.7781 11.3026
1329 1 0.0447156 9.71558 17.2905 13.2973
1330 2 0.248351 9.5906 16.6042 12.4317
1331 4 -0.153893 9.30097 18.7878 12.9324
1332 4 0.293653 8.29824 18.9466 11.7681
1333 3 -0.257027 7.37634 19.8352 11.8031
1334 3 -0.244516 8.58404 18.3887 10.6409
1335 1 0.0451508 8.76994 19.3242 14.2192
1336 2 0.25135 8.02044 20.1247 13.8903
1337 4 -0.137998 7.94431 18.0925 14.798
1338 4 0.314986 6.47106 18.0583 14.3367
1341 1 0.0462551 8.82303 16.8304 14.477
1342 2 0.236254 8.23262 15.9433 14.1533
1343 4 -0.137685 9.68552 16.503 15.6624
1525 4 -0.160534 12.8305 15.0203 8.49195
1526 4 0.317183 11.3221 15.0023 8.93672
1527 3 -0.209218 10.6162 16.0661 8.90668
1528 3 -0.233449 10.7967 13.8614 9.11592
1530 2 0.250673 12.9088 17.1451 9.22684
1766 4 0.326349 6.97034 19.4752 8.07923
1779 3 -0.277149 11.5741 19.8849 11.708
1782 2 0.240104 11.2019 19.9224 9.37031
454 2 0.259887 14.0013 13.8549 15.53
1327 3 -0.27122 13.2507 17.6793 12.6612
1505 1 0.0567138 14.8237 13.5326 8.24455
1507 4 -0.114407 16.0903 13.6129 8.98129
1511 1 0.0546312 16.3464 15.2441 8.68298
1512 2 0.278226 17.482 15.4049 8.47307
1513 4 -0.115772 15.9961 16.1379 9.87725
1514 4 0.350654 16.9059 15.716 11.069
1515 3 -0.280669 18.0933 15.3788 10.7869
1516 3 -0.301605 16.5442 15.7951 12.3083
1517 1 0.0494783 14.5047 15.9402 10.113
1518 2 0.27162 14.36 16.6706 10.9624
1519 4 -0.136302 14.1309 14.4037 10.4857
1520 4 0.297046 13.0495 14.2906 11.5903
1522 3 -0.258497 13.3439 14.7524 12.755
1523 1 0.0538928 13.5995 13.9496 9.16242
1529 1 0.0526181 13.6748 16.3478 8.91435
1629 1 0.0388951 19.1323 17.1732 13.462
1630 2 0.253434 19.0268 16.4538 12.6129
1631 4 -0.139116 18.8151 18.6581 13.1289
1632 4 0.296934 17.851 18.8108 11.9627
1633 3 -0.240705 16.9572 19.7453 12.0294
1634 3 -0.258135 17.9594 18.0878 10.8931
1635 1 0.0506259 18.3106 19.1448 14.5239
1636 2 0.244343 17.7052 20.0808 14.4025
1637 4 -0.143376 17.5584 18.0032 15.2215
1638 4 0.303114 16.1798 17.9487 14.5605
1639 3 -0.218124 15.4236 16.9383 14.7674
1640 3 -0.234777 15.6716 19.0425 14.1271
1641 1 0.0450502 18.4301 16.7996 14.7265
1642 2 0.244754 17.6457 15.9906 14.54
1795 3 -0.263622 14.5191 18.6922 10.3862
1800 4 0.279894 14.3854 19.5892 11.296
2063 1 0.0650382 18.6438 20.059 8.04774
2066 4 0.344084 16.1739 19.5658 8.40417
2067 3 -0.271701 16.3134 18.2925 8.32307
2068 3 -0.226641 15.0275 20.077 8.15248
21 3 -0.277416 2.76728 -0.14283 11.6649
24 2 0.250656 2.98177 -0.145728 9.11616
1353 1 0.0553051 4.18421 26.4798 15.1849
1355 4 -0.123582 2.86911 26.3181 14.4545
1359 1 0.0487753 2.58828 24.779 14.7653
1360 2 0.270044 1.47587 24.7268 14.9493
1361 4 -0.13317 2.88651 23.7873 13.6707
1362 4 0.333184 1.94658 23.8635 12.4451
1363 3 -0.267169 0.678454 24.0631 12.5897
1364 3 -0.295648 2.42086 23.6192 11.2663
1365 1 0.042849 4.39575 23.937 13.286
1366 2 0.255674 4.5262 23.2494 12.3895
1367 4 -0.132994 4.78681 25.3911 12.9223
1368 4 0.285487 5.80096 25.4746 11.7968
1370 3 -0.248965 5.76579 24.6145 10.8475
1371 1 0.0461736 5.35079 25.9954 14.3003
1372 2 0.246715 6.07871 26.7971 14.0988
1373 4 -0.162437 6.07529 24.8405 14.8871
1377 1 0.0468996 5.20058 23.5276 14.5238
1378 2 0.242408 5.84657 22.6891 14.2051
1379 4 -0.115119 4.36781 23.1125 15.6791
1478 4 0.294595 0.754464 20.9072 11.6812
1479 3 -0.257029 0.3894 21.4702 12.7537
1480 3 -0.258693 1.89822 20.2876 11.6956
1481 1 0.0647638 0.621156 20.416 9.1589
1483 4 -0.162074 1.44142 21.6386 8.59886
1484 4 0.325002 2.85001 21.7527 9.19387
1485 3 -0.222237 3.53908 22.815 9.13181
1486 3 -0.24122 3.39793 20.6292 9.56722
1487 1 0.0439027 0.494136 22.8034 8.90601
1488 2 0.266409 1.17925 23.6153 9.11033
1496 4 0.0960137 4.4413 20.2586 11.8783
1773 3 -0.275491 5.86377 22.0684 10.9193
2137 3 -0.250525 38.9154 25.3059 10.0277
2138 4 0.0862723 39.0289 26.7885 11.9932
2218 2 0.269184 39.0178 20.7275 15.5418
2220 4 0.331536 41.3578 20.7363 15.0912
2221 3 -0.2841 40.9286 21.8685 15.5099
2222 3 -0.239167 42.6313 20.5836 15.0308
2397 4 0.261053 38.9407 25.9482 11.1255
8 4 0.329047 7.36077 -0.743845 8.16782
10 3 -0.202381 8.6059 -0.443467 8.19757
321 3 -0.248966 12.1296 -0.259826 11.5906
324 2 0.238303 12.7416 -0.65935 9.06213
1237 3 -0.237048 8.76357 25.2194 10.6961
1318 2 0.265092 9.69621 20.8906 15.4229
1320 4 0.330836 12.2398 20.6482 15.2031
1321 3 -0.267853 11.7424 21.6929 15.7105
1369 3 -0.241777 6.61299 26.4953 11.7246
1374 4 0.311251 7.54911 24.7084 14.5202