# LAMMPS data file written by Ovito Basic 3.0.0-dev791
11584 atoms
7 atom types
0.0 105.0 xlo xhi
0.0 35.0 ylo yhi
0.0 35.0 zlo zhi

Masses

1 12.0107   # C
2  1.00797  # H
3 15.999    # O
4  6.941    # Li
5 18.998403 # F
6 30.973762 # P
7 54.938045 # Mn,  (8 58.6934   # Ni), (9 26.981539 # Al)

Atoms  # full

1 1 1 0.0 14.764618874 23.307842255 1.433154106
2 1 1 0.0 16.709363937 22.202285767 1.72072196
3 1 1 0.0 15.690877914 21.673526764 2.681379795
4 1 1 0.0 29.966398239 14.601211548 11.242807388
5 1 1 0.0 30.310693741 12.94203949 12.731292725
6 1 1 0.0 29.570184708 12.401947975 11.548196793
7 1 1 0.0 27.959142685 16.897319794 25.612033844
8 1 1 0.0 29.113183975 17.721231461 23.85808754
9 1 1 0.0 30.070804596 17.173185349 24.869211197
10 1 1 0.0 12.998826027 22.785280228 12.708217621
11 1 1 0.0 11.509284973 21.261833191 13.44805336
12 1 1 0.0 12.619604111 20.562046051 12.728852272
13 1 1 0.0 27.652608871 24.870254517 5.174026966
14 1 1 0.0 27.139129639 22.866094589 4.275885105
15 1 1 0.0 28.355287552 22.727386475 5.13698101
16 1 1 0.0 13.208155632 25.444805145 21.665914536
17 1 1 0.0 11.725769043 27.139225006 21.530078888
18 1 1 0.0 11.51009655 26.197967529 20.386714935
19 1 1 0.0 10.135684967 22.714008331 1.55409503
20 1 1 0.0 11.28547287 24.387569427 2.536015034
21 1 1 0.0 9.828781128 24.730285645 2.517134905
22 1 1 0.0 22.911312103 3.95962429 17.457637787
23 1 1 0.0 22.84478569 3.596739292 19.682691574
24 1 1 0.0 24.129615784 4.277760029 19.328874588
25 1 1 0.0 2.117607117 11.170483589 13.92242527
26 1 1 0.0 2.987219095 10.895803452 11.859586716
27 1 1 0.0 1.535498023 11.240812302 11.744532585
28 1 1 0.0 25.064807892 22.244125366 24.536483765
29 1 1 0.0 27.146997452 22.810819626 25.192468643
30 1 1 0.0 27.191337585 21.494543076 24.481681824
31 1 1 0.0 8.963706017 10.356775284 27.149095535
32 1 1 0.0 9.156277657 12.128763199 28.531108856
33 1 1 0.0 9.945472717 10.982191086 29.080932617
34 1 1 0.0 31.190296173 25.685916901 10.169527054
35 1 1 0.0 33.22687149 26.031326294 9.26397419
36 1 1 0.0 33.146278381 24.630739212 9.785147667
37 1 1 0.0 22.046564102 33.28704071 27.854129791
38 1 1 0.0 23.409130096 31.936233521 26.6685009
39 1 1 0.0 24.099830627 33.239471436 26.922012329
40 1 1 0.0 33.416160583 2.251701117 8.315573692
41 1 1 0.0 32.375167847 4.226658821 8.636293411
42 1 1 0.0 33.12140274 4.263543129 7.339550972
43 1 1 0.0 25.879289627 31.590797424 29.671455383
44 1 1 0.0 24.589769363 33.212219238 30.563137054
45 1 1 0.0 23.802930832 31.941944122 30.479190826
46 1 1 0.0 19.546937943 19.88073349 21.793754578
47 1 1 0.0 20.864629745 18.101388931 22.223403931
48 1 1 0.0 21.720178604 19.288816452 21.910650253
49 1 1 0.0 21.908601761 2.232449055 7.325888634
50 1 1 0.0 20.315422058 3.687791348 6.669577599
51 1 1 0.0 21.16856575 4.32616806 7.720475197
52 1 1 0.0 16.881135941 17.060569763 18.958154678
53 1 1 0.0 15.790307999 15.756326675 17.476255417
54 1 1 0.0 16.692272186 14.906843185 18.315658569
55 1 1 0.0 21.994140625 7.760844231 29.775489807
56 1 1 0.0 22.889125824 9.158623695 28.248338699
57 1 1 0.0 21.438140869 8.954081535 27.944084167
58 1 1 0.0 15.070502281 5.90865612 4.672624111
59 1 1 0.0 15.98898983 5.667375565 6.718387127
60 1 1 0.0 16.043312073 4.359813213 5.992373466
61 1 1 0.0 22.4656353 27.286003113 4.547214031
62 1 1 0.0 23.456293106 29.302463531 4.745881081
63 1 1 0.0 24.122495651 28.329055786 5.666976929
64 1 1 0.0 13.665036201 19.754232407 19.819194794
65 1 1 0.0 14.778961182 18.21717453 21.037231445
66 1 1 0.0 13.50153923 18.570711136 21.732192993
67 1 1 0.0 31.174190521 14.269737244 31.038860321
68 1 1 0.0 29.88419342 14.919549942 32.771095276
69 1 1 0.0 31.325883865 15.094350815 33.132667542
70 1 1 0.0 25.939292908 24.493282318 7.147179127
71 1 1 0.0 24.133798599 24.147380829 5.840456009
72 1 1 0.0 24.286226273 23.000957489 6.790318012
73 1 1 0.0 4.494517803 1.626605988 28.876148224
74 1 1 0.0 4.954477787 3.150582075 27.278364182
75 1 1 0.0 5.616516113 1.85363996 26.932804108
76 1 1 0.0 16.918949127 18.045078278 28.336990356
77 1 1 0.0 16.282728195 20.158231735 27.871389389
78 1 1 0.0 17.311969757 20.177513123 28.957691193
79 1 1 0.0 6.604218006 29.389759064 16.278646469
80 1 1 0.0 7.201550484 27.22035408 16.124160767
81 1 1 0.0 6.750932217 27.513023376 17.520961761
82 1 1 0.0 29.522438049 5.769849777 10.912248611
83 1 1 0.0 28.373445511 7.64376688 11.417450905
84 1 1 0.0 27.423818588 6.596027374 10.927331924
85 1 1 0.0 26.215341568 10.650263786 23.851774216
86 1 1 0.0 26.51984024 10.040115356 26.001653671
87 1 1 0.0 26.093723297 8.848404884 25.202894211
88 1 1 0.0 17.847875595 29.199138641 13.583967209
89 1 1 0.0 18.388084412 29.880378723 15.665088654
90 1 1 0.0 17.68242836 30.988061905 14.947559357
91 1 1 0.0 13.459470749 5.923583984 16.053276062
92 1 1 0.0 11.359847069 5.399297714 15.417914391
93 1 1 0.0 12.336211205 4.597859859 14.615307808
94 1 1 0.0 9.52283287 26.9233284 4.935982227
95 1 1 0.0 10.97281456 26.191879272 6.501073837
96 1 1 0.0 9.59258461 25.728736877 6.847811222
97 1 1 0.0 1.627488017 32.262699127 6.114808083
98 1 1 0.0 2.09860301 32.953765869 4.020181179
99 1 1 0.0 3.360765934 32.514446259 4.693758011
100 1 1 0.0 18.093875885 33.700740814 3.662464142
101 1 1 0.0 19.177524567 33.249523163 1.73656404
102 1 1 0.0 20.155244827 33.243415833 2.869606972
103 1 1 0.0 26.897127151 29.630987167 18.961032867
104 1 1 0.0 28.012147903 31.513916016 19.507188797
105 1 1 0.0 28.758716583 30.326000214 20.028017044
106 1 1 0.0 20.605745316 12.179834366 29.277580261
107 1 1 0.0 19.684780121 12.699228287 27.285337448
108 1 1 0.0 21.017652512 13.369059563 27.405927658
109 1 1 0.0 1.908999085 3.761971951 10.770521164
110 1 1 0.0 1.935652137 1.766093016 9.72040844
111 1 1 0.0 1.893625021 1.547932863 11.200408936
112 1 1 0.0 2.140975952 27.225002289 16.898529053
113 1 1 0.0 3.76887989 28.535591125 16.050434113
114 1 1 0.0 2.503746033 28.755073547 15.281652451
115 1 1 0.0 5.078563213 6.314232826 14.162979126
116 1 1 0.0 3.600744009 5.070790291 12.998125076
117 1 1 0.0 3.69770503 6.431910992 12.383542061
118 1 1 0.0 4.50149107 15.594296455 8.599554062
119 1 1 0.0 4.593502045 13.391384125 8.124484062
120 1 1 0.0 5.053544998 14.175352097 6.935569763
121 1 1 0.0 12.199487686 8.31522274 21.303127289
122 1 1 0.0 14.311114311 9.093514442 21.153860092
123 1 1 0.0 13.434225082 9.8523283 20.207798004
124 1 1 0.0 33.109470367 19.1114254 4.216382027
125 1 1 0.0 32.051532745 20.856267929 5.177248955
126 1 1 0.0 33.341182709 20.602325439 5.892848015
127 1 1 0.0 22.723592758 10.367918968 32.035564423
128 1 1 0.0 22.651159286 12.243392944 33.286296844
129 1 1 0.0 23.078069687 12.590865135 31.894615173
130 1 1 0.0 5.323307991 5.651072502 7.870358944
131 1 1 0.0 5.951683998 4.669686794 9.801423073
132 1 1 0.0 6.760785103 4.109873772 8.673713684
133 1 1 0.0 33.734970093 25.796447754 15.412303925
134 1 1 0.0 33.23589325 26.008274078 13.223007202
135 1 1 0.0 33.259075165 24.557281494 13.58884716
136 1 1 0.0 10.06435585 26.826505661 33.651931763
137 1 1 0.0 11.558761597 25.184299469 33.255840302
138 1 1 0.0 12.117113113 26.488956451 32.780578613
139 1 1 0.0 1.269049048 10.940217972 19.014993668
140 1 1 0.0 1.747971177 13.142618179 18.93104744
141 1 1 0.0 1.736889005 12.583638191 17.542816162
142 1 1 0.0 26.749904633 29.345619202 31.392837524
143 1 1 0.0 26.099481583 30.702095032 33.073284149
144 1 1 0.0 25.25166893 29.468818665 33.074237823
145 1 1 0.0 22.812261581 18.745155334 25.416778564
146 1 1 0.0 24.478490829 17.754232407 26.569484711
147 1 1 0.0 24.989011765 18.184837341 25.230190277
148 1 1 0.0 29.520015717 5.344191551 21.324670792
149 1 1 0.0 27.77889061 6.125029564 20.122270584
150 1 1 0.0 28.676929474 5.323663712 19.232830048
151 1 1 0.0 26.524461746 25.763759613 28.476390839
152 1 1 0.0 25.211027145 27.128681183 27.252111435
153 1 1 0.0 25.719787598 27.870582581 28.448150635
154 1 1 0.0 15.366098404 33.730499268 9.827428818
155 1 1 0.0 16.989990234 33.252960205 11.318037033
156 1 1 0.0 15.664971352 33.263786316 12.013719559
157 1 1 0.0 26.698154449 13.808218002 10.886210442
158 1 1 0.0 27.20331955 14.898103714 12.795120239
159 1 1 0.0 26.571126938 13.582765579 13.126755714
160 1 1 0.0 11.946773529 7.171311855 6.13086319
161 1 1 0.0 11.22159481 6.489247322 8.154690742
162 1 1 0.0 12.703108788 6.296309948 8.067184448
163 1 1 0.0 7.416175365 8.848809242 14.450717926
164 1 1 0.0 8.159395218 10.067560196 16.196928024
165 1 1 0.0 9.107406616 8.93833065 15.940258026
166 1 1 0.0 13.466442108 3.91543293 11.546829224
167 1 1 0.0 13.515657425 1.877815008 12.512577057
168 1 1 0.0 14.626314163 2.715656996 13.064144135
169 1 1 0.0 8.623250008 13.99839592 21.264900208
170 1 1 0.0 6.627914906 13.986785889 20.213481903
171 1 1 0.0 7.563397408 13.051481247 19.513595581
172 1 1 0.0 6.522430897 14.451000214 27.777534485
173 1 1 0.0 5.804102898 15.084923744 25.735687256
174 1 1 0.0 6.444091797 13.735467911 25.640037537
175 1 1 0.0 27.449703217 33.375434875 23.430389404
176 1 1 0.0 29.512081146 32.54650116 23.81306076
177 1 1 0.0 28.990728378 33.178508759 25.065467834
178 1 1 0.0 15.897181511 11.670564651 18.727132797
179 1 1 0.0 17.094211578 11.698802948 20.638494492
180 1 1 0.0 17.999580383 11.983682632 19.481378555
181 1 1 0.0 13.303676605 24.827785492 25.388248444
182 1 1 0.0 14.801504135 26.461380005 24.970081329
183 1 1 0.0 14.813502312 26.138942719 26.431467056
184 1 1 0.0 28.51518631 11.59847641 33.261474609
185 1 1 0.0 26.929653168 12.703187943 32.098434448
186 1 1 0.0 26.335044861 12.167394638 33.362998962
187 1 1 0.0 16.749509811 31.38265419 18.722602844
188 1 1 0.0 16.385354996 33.51241684 19.369506836
189 1 1 0.0 17.10770607 33.508228302 18.058799744
190 1 1 0.0 3.209214926 11.959070206 29.752254486
191 1 1 0.0 3.302771091 13.069857597 27.791545868
192 1 1 0.0 2.150743008 13.582075119 28.597911835
193 1 1 0.0 5.668768883 23.218612671 7.167476654
194 1 1 0.0 7.498222351 22.153762817 6.388905048
195 1 1 0.0 7.049563885 23.168773651 5.384801865
196 1 1 0.0 11.735235214 9.784029007 31.912807465
197 1 1 0.0 10.230794907 8.474821091 32.966190338
198 1 1 0.0 11.572367668 7.812185764 32.995544434
199 1 1 0.0 26.595239639 18.506601334 33.604831696
200 1 1 0.0 25.656780243 20.280630112 32.575706482
201 1 1 0.0 26.925355911 20.708480835 33.244609833
202 1 1 0.0 14.778179169 9.297825813 3.622231007
203 1 1 0.0 14.234013557 9.810027122 1.494199991
204 1 1 0.0 15.31553936 8.775585175 1.494904041
205 1 1 0.0 19.251857758 15.019947052 6.189017773
206 1 1 0.0 19.398328781 13.250684738 7.58014679
207 1 1 0.0 20.042804718 14.440173149 8.220095634
208 1 1 0.0 23.580514908 1.376456976 17.64261055
209 1 1 0.0 25.683551788 2.04241395 17.172811508
210 1 1 0.0 24.86520195 2.061254978 15.919928551
211 1 1 0.0 7.30014801 12.404621124 13.470989227
212 1 1 0.0 9.35054493 12.023410797 12.612195015
213 1 1 0.0 8.559091568 12.859082222 11.655628204
214 1 1 0.0 2.396040916 18.157176971 13.852760315
215 1 1 0.0 3.425606012 17.659179688 11.908802032
216 1 1 0.0 4.08725214 18.848909378 12.530518532
217 1 1 0.0 7.302740097 7.401793003 24.193309784
218 1 1 0.0 6.250296116 5.490674019 24.765119553
219 1 1 0.0 7.533294201 5.598380089 25.528060913
220 1 1 0.0 29.574895859 3.569572926 26.03351593
221 1 1 0.0 27.88110733 3.016552925 24.650680542
222 1 1 0.0 28.753084183 1.820330858 24.870853424
223 1 1 0.0 14.204734802 24.337892532 17.822153091
224 1 1 0.0 13.700387001 22.541028976 16.555704117
225 1 1 0.0 14.680002213 23.404556274 15.824651718
226 1 1 0.0 2.266026974 14.553443909 24.181209564
227 1 1 0.0 2.218041897 15.325382233 22.062532425
228 1 1 0.0 3.440749884 14.484605789 22.257076263
229 1 1 0.0 14.858221054 13.434924126 15.365970612
230 1 1 0.0 17.071422577 13.093301773 15.097635269
231 1 1 0.0 16.431907654 13.280820847 13.75762558
232 1 1 0.0 13.045988083 1.270931005 33.048274994
233 1 1 0.0 12.079566956 1.747410059 31.066865921
234 1 1 0.0 11.037010193 1.747467995 32.14056778
235 1 1 0.0 33.380462646 24.929637909 19.30645752
236 1 1 0.0 33.234458923 22.859127045 20.188867569
237 1 1 0.0 32.04895401 23.109176636 19.310333252
238 1 1 0.0 1.585919976 8.031264305 9.664234161
239 1 1 0.0 3.207911968 9.013816833 8.443287849
240 1 1 0.0 1.949425101 9.816404343 8.334516525
241 1 1 0.0 1.287531972 31.282905579 12.39040184
242 1 1 0.0 1.749649048 33.275764465 11.440692902
243 1 1 0.0 1.836197019 32.199764252 10.404111862
244 1 1 0.0 3.032923937 29.984287262 1.94738698
245 1 1 0.0 2.251323938 27.906225204 1.550222039
246 1 1 0.0 2.050592899 28.244655609 2.994153023
247 1 1 0.0 8.531002998 17.590194702 28.259143829
248 1 1 0.0 9.220294952 16.058513641 26.753883362
249 1 1 0.0 10.140028 17.238592148 26.718227386
250 1 1 0.0 31.438655853 30.106334686 22.34251976
251 1 1 0.0 33.05903244 31.673301697 22.265241623
252 1 1 0.0 33.059967041 30.894634247 20.987182617
253 1 1 0.0 2.038891077 17.49455452 30.576709747
254 1 1 0.0 3.068698883 18.793462753 29.047229767
255 1 1 0.0 3.903884649 17.579978943 29.311203003
256 1 1 0.0 25.591457367 9.491570473 9.961138725
257 1 1 0.0 25.387580872 10.416931152 12.007873535
258 1 1 0.0 24.938493729 8.990303993 12.060993195
259 1 1 0.0 33.680648804 31.266704559 11.368124008
260 1 1 0.0 32.977928162 29.522609711 12.613635063
261 1 1 0.0 33.18573761 30.712230682 13.497591972
262 1 1 0.0 19.094827652 14.052408218 32.041732788
263 1 1 0.0 18.734893799 16.028923035 31.016639709
264 1 1 0.0 19.462518692 15.111474991 30.084644318
265 1 1 0.0 18.913398743 19.849172592 18.480096817
266 1 1 0.0 16.897228241 20.175142288 17.523130417
267 1 1 0.0 17.80563736 19.494644165 16.547693253
268 1 1 0.0 25.131298065 24.264232635 32.167331696
269 1 1 0.0 23.829792023 25.937210083 32.938186646
270 1 1 0.0 23.348684311 25.517173767 31.584720612
271 1 1 0.0 2.43295598 21.441431046 30.68602562
272 1 1 0.0 2.671237946 22.785799026 28.890785217
273 1 1 0.0 3.802153826 23.022533417 29.841972351
274 1 1 0.0 16.281904221 10.478672981 28.116815567
275 1 1 0.0 14.785751343 9.062556267 29.035030365
276 1 1 0.0 14.060537338 10.204605103 28.395065308
277 1 1 0.0 27.853370667 18.606212616 30.989713669
278 1 1 0.0 29.762836456 18.794300079 32.175266266
279 1 1 0.0 29.786327362 19.767375946 31.038455963
280 1 1 0.0 18.727514267 7.628966331 2.137109995
281 1 1 0.0 18.414646149 6.86653614 4.236584187
282 1 1 0.0 19.878099442 7.062764168 3.992528915
283 1 1 0.0 20.381036758 33.041362762 25.515228271
284 1 1 0.0 19.765380859 30.980373383 26.193660736
285 1 1 0.0 19.078414917 32.007053375 27.038507462
286 1 1 0.0 7.771440506 22.93572998 19.897155762
287 1 1 0.0 7.146056652 20.793792725 19.568561554
288 1 1 0.0 7.878049374 20.903354645 20.869310379
289 1 1 0.0 7.988425732 4.984663963 12.679336548
290 1 1 0.0 8.592599869 7.04509306 11.988986969
291 1 1 0.0 9.2660923 6.017702103 11.134213448
292 1 1 0.0 30.502908707 9.409896851 8.484381676
293 1 1 0.0 29.290075302 7.649785995 7.764643669
294 1 1 0.0 29.496795654 8.606527328 6.63253212
295 1 1 0.0 29.787530899 18.652942657 11.086196899
296 1 1 0.0 31.034061432 20.475280762 11.546870232
297 1 1 0.0 31.67165947 19.269119263 12.162017822
298 1 1 0.0 10.219520569 12.108852386 24.606319427
299 1 1 0.0 11.057535172 10.245912552 23.65019989
300 1 1 0.0 11.348511696 11.426053047 22.77706337
301 1 1 0.0 9.642900467 8.867245674 3.663104057
302 1 1 0.0 10.108555794 10.009084702 5.551580906
303 1 1 0.0 11.111226082 10.361875534 4.498035908
304 1 1 0.0 10.83139801 10.687162399 9.08982563
305 1 1 0.0 12.308573723 10.742407799 10.793315887
306 1 1 0.0 12.574636459 9.539066315 9.944231987
307 1 1 0.0 3.714941263 21.906768799 13.638338089
308 1 1 0.0 1.60818994 21.548812866 14.359759331
309 1 1 0.0 1.606335998 21.684440613 12.869335175
310 1 1 0.0 24.401735306 28.718345642 20.374536514
311 1 1 0.0 24.999328613 30.384700775 21.772079468
312 1 1 0.0 25.73323822 29.135351181 22.146602631
313 1 1 0.0 20.660181046 3.167807102 1.402791977
314 1 1 0.0 18.588722229 4.236906052 1.444734097
315 1 1 0.0 16.462194443 5.191674232 1.400452971
316 1 1 0.0 12.751475334 26.600986481 13.267021179
317 1 1 0.0 11.216773987 27.311460495 11.662158012
318 1 1 0.0 9.797608376 28.027225494 9.956485748
319 1 1 0.0 33.492996216 17.696121216 17.409919739
320 1 1 0.0 33.31552124 19.565296173 16.027763367
321 1 1 0.0 33.207759857 21.353420258 14.535562515
322 1 1 0.0 12.484362602 8.382126808 13.719459534
323 1 1 0.0 14.14881897 7.581500053 12.296696663
324 1 1 0.0 15.843233109 6.926327229 10.835404396
325 1 1 0.0 15.173749924 32.024047852 6.506326199
326 1 1 0.0 17.141862869 30.857812881 6.056773186
327 1 1 0.0 19.165563583 29.819847107 5.544002056
328 1 1 0.0 9.157811165 4.995807171 33.428768158
329 1 1 0.0 7.048440933 5.185978889 32.454051971
330 1 1 0.0 4.90755415 5.235612869 31.532207489
331 1 1 0.0 21.640203476 18.13461113 6.278628349
332 1 1 0.0 20.445840836 19.996906281 5.543083191
333 1 1 0.0 19.369157791 21.946395874 4.853225231
334 1 1 0.0 12.851508141 33.063850403 3.809752941
335 1 1 0.0 10.694524765 32.805847168 2.963269949
336 1 1 0.0 8.599327087 32.536067963 1.97684896
337 1 1 0.0 32.071838379 19.85544014 20.349302292
338 1 1 0.0 32.531326294 20.148637772 22.616146088
339 1 1 0.0 33.135715485 20.474117279 24.844247818
340 1 1 0.0 16.074411392 15.727804184 33.450836182
341 1 1 0.0 15.149162292 16.852279663 31.630084991
342 1 1 0.0 14.267772675 17.859266281 29.72095108
343 1 1 0.0 6.956450939 19.123428345 1.401293039
344 1 1 0.0 6.594175816 16.820688248 1.443855047
345 1 1 0.0 6.358163834 14.50161171 1.400803089
346 1 1 0.0 2.068154097 20.729801178 18.362459183
347 1 1 0.0 3.608393908 19.561733246 17.059022903
348 1 1 0.0 5.032611847 18.306690216 15.705456734
349 1 1 0.0 29.855512619 29.398223877 29.29652977
350 1 1 0.0 31.421112061 29.407251358 27.568962097
351 1 1 0.0 33.067546844 29.518779755 25.922002792
352 1 1 0.0 33.102725983 14.607414246 19.746231079
353 1 1 0.0 31.957073212 15.108689308 17.778524399
354 1 1 0.0 30.92133522 15.535573959 15.73385334
355 1 1 0.0 16.877111435 1.981148958 32.986701965
356 1 1 0.0 18.91163063 3.119745016 32.988117218
357 1 1 0.0 20.900054932 4.330525875 32.862239838
358 1 1 0.0 18.399236679 16.617923737 14.30457592
359 1 1 0.0 19.959844589 18.249332428 14.886536598
360 1 1 0.0 21.435377121 19.982442856 15.391311646
361 1 1 0.0 15.185077667 4.763401985 28.676715851
362 1 1 0.0 14.343497276 4.581836224 30.843381882
363 1 1 0.0 13.466999054 4.549528122 33.003559113
364 1 1 0.0 15.524531364 2.844929934 9.467256546
365 1 1 0.0 17.757556915 2.219966888 9.709523201
366 1 1 0.0 19.982151031 1.52995491 9.813093185
367 1 1 0.0 28.603130341 13.363754272 1.731117964
368 1 1 0.0 27.726278305 15.517408371 1.900149822
369 1 1 0.0 26.814510345 17.66309166 1.919996023
370 1 1 0.0 32.730522156 10.89839077 6.70593977
371 1 1 0.0 32.922740936 12.281674385 8.572822571
372 1 1 0.0 32.988002777 13.737266541 10.392893791
373 1 1 0.0 23.814207077 13.706641197 10.164985657
374 1 1 0.0 22.144628525 13.350111008 11.752773285
375 1 1 0.0 20.371643066 13.019891739 13.230318069
376 1 1 0.0 13.944127083 18.179424286 16.10222435
377 1 1 0.0 13.638307571 16.648696899 14.370455742
378 1 1 0.0 13.297796249 15.012640953 12.74471283
379 1 1 0.0 27.855474472 27.594272614 9.461375237
380 1 1 0.0 27.465425491 29.892772675 9.440694809
381 1 1 0.0 27.166397095 32.200489044 9.296853065
382 1 1 0.0 5.356472015 17.506471634 5.047902107
383 1 1 0.0 3.947649717 18.347841263 3.391705036
384 1 1 0.0 2.643520117 19.298168182 1.708912969
385 1 1 0.0 16.42764473 13.023187637 1.878072977
386 1 1 0.0 16.310094833 13.556621552 4.144635201
387 1 1 0.0 16.040990829 14.106838226 6.394193172
388 1 1 0.0 15.485539436 33.249996185 33.24905014
389 1 1 0.0 13.896680832 31.598239899 32.821388245
390 1 1 0.0 12.311756134 29.988048553 32.24609375
391 1 1 0.0 15.548153877 22.727409363 24.138793945
392 1 1 0.0 14.255408287 21.000865936 25.023960114
393 1 1 0.0 12.872038841 19.381105423 25.971767426
394 1 1 0.0 32.618900299 2.704882145 24.076059341
395 1 1 0.0 31.057573318 2.165601969 22.430728912
396 1 1 0.0 29.45372963 1.773733974 20.78458786
397 1 1 0.0 5.44110918 25.443321228 26.575523376
398 1 1 0.0 3.569028854 24.94493866 25.278369904
399 1 1 0.0 1.75037384 24.544242859 23.875656128
400 1 1 0.0 14.319472313 33.600669861 22.471124649
401 1 1 0.0 11.992981911 33.55644989 22.616580963
402 1 1 0.0 9.661968231 33.597812653 22.634782791
403 1 1 0.0 7.442746162 1.401443005 10.854273796
404 1 1 0.0 9.511122704 1.444627047 9.77927494
405 1 1 0.0 11.635234833 1.402598023 8.819043159
406 1 1 0.0 15.06963253 1.398161054 1.812373996
407 1 1 0.0 16.910787582 1.43521595 3.242218018
408 1 1 0.0 18.670415878 1.387974024 4.770987988
409 1 1 0.0 14.502277374 17.574581146 3.770163059
410 1 1 0.0 15.172959328 19.079395294 5.419827461
411 1 1 0.0 15.93952179 20.476413727 7.121704102
412 1 1 0.0 18.599449158 32.135528564 8.461571693
413 1 1 0.0 20.397041321 32.814350128 7.141143799
414 1 1 0.0 22.222711563 33.345146179 5.791752815
415 1 1 0.0 16.974542618 10.853912354 9.974398613
416 1 1 0.0 16.46925354 10.055560112 12.105829239
417 1 1 0.0 15.834354401 9.339116096 14.231686592
418 1 1 0.0 19.980384827 24.170326233 1.570173025
419 1 1 0.0 20.722459793 21.97990799 1.865260005
420 1 1 0.0 21.359546661 19.745447159 2.057508945
421 1 1 0.0 6.013726234 29.95520401 2.051908016
422 1 1 0.0 5.576522827 29.017242432 4.141107082
423 1 1 0.0 5.022535801 28.003265381 6.166104317
424 1 1 0.0 22.865449905 22.726539612 33.597305298
425 1 1 0.0 21.380592346 20.929561615 33.555667877
426 1 1 0.0 19.996501923 19.053901672 33.598854065
427 1 1 0.0 29.559469223 16.792478561 28.950298309
428 1 1 0.0 27.40454483 16.069187164 29.468780518
429 1 1 0.0 25.201055527 15.415081024 29.859226227
430 1 1 0.0 10.247308731 17.199314117 1.856241941
431 1 1 0.0 9.847985268 17.689086914 4.100419998
432 1 1 0.0 9.591360092 18.131465912 6.375086784
433 1 1 0.0 13.823400497 28.551599503 5.720664978
434 1 1 0.0 15.826778412 27.359195709 5.702692986
435 1 1 0.0 17.866987228 26.240497589 5.555301666
436 1 1 0.0 1.958776116 11.66553688 33.599773407
437 1 1 0.0 4.12090683 12.536781311 33.557319641
438 1 1 0.0 6.232214928 13.524801254 33.600418091
439 1 1 0.0 20.705400467 21.766414642 29.983690262
440 1 1 0.0 20.531671524 19.761129379 28.807117462
441 1 1 0.0 20.371101379 17.836690903 27.500818253
442 1 1 0.0 32.282661438 28.835395813 16.225442886
443 1 1 0.0 30.141901016 29.755905151 16.151399612
444 1 1 0.0 28.05332756 30.791938782 16.16378212
445 1 1 0.0 1.388962984 5.405730247 7.652267456
446 1 1 0.0 1.442649961 4.018152237 5.779457092
447 1 1 0.0 1.413203955 2.528862953 3.985908031
448 1 1 0.0 22.739116669 30.611743927 17.694271088
449 1 1 0.0 21.05689621 30.094861984 19.22353363
450 1 1 0.0 19.275241852 29.648292542 20.659481049
451 1 1 0.0 29.971725464 14.922551155 6.083193779
452 1 1 0.0 28.962692261 13.173465729 7.248621941
453 1 1 0.0 28.045915604 11.327684402 8.338703156
454 1 1 0.0 26.274179459 25.589845657 23.507591248
455 1 1 0.0 26.656047821 24.142848969 21.719841003
456 1 1 0.0 26.962804794 22.587396622 20.010417938
457 1 1 0.0 24.792131424 33.395862579 1.964872003
458 1 1 0.0 25.265628815 32.755260468 4.156013966
459 1 1 0.0 25.729398727 31.968603134 6.301184177
460 1 1 0.0 5.564382076 33.234741211 24.39887619
461 1 1 0.0 5.351565838 30.921466827 24.59671402
462 1 1 0.0 5.288815022 28.596920013 24.764686584
463 1 1 0.0 22.638156891 25.971321106 21.061685562
464 1 1 0.0 23.015943527 23.882240295 20.097995758
465 1 1 0.0 23.297779083 21.833454132 19.021568298
466 1 1 0.0 20.290075302 30.331171036 11.700798035
467 1 1 0.0 20.496599197 28.044670105 12.106924057
468 1 1 0.0 20.595533371 25.734630585 12.406236649
469 1 1 0.0 17.428316116 5.758309841 33.609775543
470 1 1 0.0 16.202667236 7.741030693 33.562007904
471 1 1 0.0 15.086982727 9.78785038 33.599899292
472 1 1 0.0 1.397915959 30.44821167 18.204048157
473 1 1 0.0 1.442245007 29.046916962 20.066862106
474 1 1 0.0 1.402032018 27.749967575 22.003862381
475 1 1 0.0 2.045449972 15.974970818 16.659927368
476 1 1 0.0 2.880202055 14.964609146 14.731707573
477 1 1 0.0 3.795733929 14.082082748 12.777581215
478 1 1 0.0 28.569236755 32.826351166 2.848983049
479 1 1 0.0 27.621660233 30.73840332 2.426795006
480 1 1 0.0 26.719121933 28.665159225 1.858682871
481 1 1 0.0 10.012268066 2.363742113 13.21440506
482 1 1 0.0 9.963136673 2.033699036 15.521856308
483 1 1 0.0 10.028585434 1.603057146 17.812255859
484 1 1 0.0 28.171543121 14.343736649 23.194086075
485 1 1 0.0 26.407751083 14.084747314 24.696632385
486 1 1 0.0 24.733455658 13.888014793 26.307125092
487 1 1 0.0 33.061096191 7.87355423 9.75967598
488 1 1 0.0 32.910926819 7.412037849 7.479298115
489 1 1 0.0 32.61964798 6.895967007 5.224415779
490 1 1 0.0 28.506889343 5.815670967 5.031480789
491 1 1 0.0 27.490858078 3.719429016 5.126976013
492 1 1 0.0 26.43551445 1.641149998 5.07526207
493 1 1 0.0 11.896016121 5.63102293 19.184339523
494 1 1 0.0 10.12437439 7.115860939 19.488004684
495 1 1 0.0 8.451586723 8.715587616 19.76786232
496 1 1 0.0 20.030908585 22.966604233 17.940750122
497 1 1 0.0 18.100809097 22.757566452 19.231754303
498 1 1 0.0 16.089647293 22.548845291 20.392498016
499 1 1 0.0 1.717128038 24.081401825 19.627904892
500 1 1 0.0 3.193430901 23.066530228 21.1199646
501 1 1 0.0 4.624892235 21.915967941 22.55620575
502 1 1 0.0 20.567726135 27.333564758 17.082054138
503 1 1 0.0 22.350427628 26.837036133 15.663919449
504 1 1 0.0 24.030561447 26.295841217 14.140789032
505 1 1 0.0 4.243215084 20.860185623 5.62161541
506 1 1 0.0 2.990082979 20.926231384 7.586551189
507 1 1 0.0 1.723500013 21.14384079 9.531822205
508 1 1 0.0 5.695941925 25.879005432 33.538677216
509 1 1 0.0 3.871770144 24.427932739 33.489093781
510 1 1 0.0 1.977144957 23.070146561 33.538871765
511 1 1 0.0 33.606304169 12.643567085 15.200780869
512 1 1 0.0 33.559432983 14.744481087 14.191012383
513 1 1 0.0 33.598213196 16.897518158 13.297370911
514 1 1 0.0 13.524513245 33.60433197 14.708831787
515 1 1 0.0 12.658210754 33.560398102 16.872915268
516 1 1 0.0 11.675088882 33.602172852 18.986537933
517 1 1 0.0 26.127384186 19.827095032 7.950040817
518 1 1 0.0 27.905340195 21.237739563 8.483547211
519 1 1 0.0 29.590019226 22.767412186 8.991119385
520 1 1 0.0 10.28044796 17.751085281 14.810433388
521 1 1 0.0 8.844741821 19.497919083 15.378753662
522 1 1 0.0 7.529666901 21.317308426 16.008089066
523 1 1 0.0 15.169502258 16.557220459 25.152864456
524 1 1 0.0 15.256507874 15.409948349 27.18063736
525 1 1 0.0 15.210500717 14.329269409 29.245990753
526 1 1 0.0 32.825122833 1.419476986 5.030329227
527 1 1 0.0 31.211957932 1.470082998 6.712831974
528 1 1 0.0 29.694644928 1.438720942 8.482702255
529 1 1 0.0 33.413822174 15.04750061 6.917030811
530 1 1 0.0 32.299507141 16.910148621 7.768211842
531 1 1 0.0 31.23075676 18.850492477 8.495191574
532 1 1 0.0 26.491928101 1.447926044 32.959533691
533 1 1 0.0 28.822113037 1.495545983 33.01984787
534 1 1 0.0 31.152311325 1.447978973 32.959831238
535 1 1 0.0 1.688732028 12.209566116 5.186855793
536 1 1 0.0 3.937016726 11.634538651 5.410978794
537 1 1 0.0 6.216538906 11.157867432 5.521570206
538 1 1 0.0 7.683321953 15.151836395 8.792863846
539 1 1 0.0 6.731221199 17.261894226 9.070053101
540 1 1 0.0 5.800273895 19.395635605 9.197138786
541 1 1 0.0 4.12847805 17.592521667 33.272689819
542 1 1 0.0 6.12944603 16.814525604 32.363555908
543 1 1 0.0 8.061178207 16.033546448 31.317539215
544 1 1 0.0 9.838300705 26.308029175 25.991838455
545 1 1 0.0 11.119107246 27.925405502 24.90587616
546 1 1 0.0 12.273042679 29.585733414 23.745101929
547 1 1 0.0 14.972600937 27.465780258 20.436767578
548 1 1 0.0 15.917515755 28.478843689 22.312004089
549 1 1 0.0 16.72354126 29.547828674 24.220737457
550 1 1 0.0 26.67020607 30.897083282 25.374300003
551 1 1 0.0 27.690698624 28.844314575 25.799030304
552 1 1 0.0 28.739122391 26.840671539 26.366397858
553 1 1 0.0 13.411366463 30.229183197 18.695697784
554 1 1 0.0 11.586315155 29.724212646 17.335601807
555 1 1 0.0 9.778004646 29.357187271 15.910477638
556 1 1 0.0 11.548926353 28.850429535 1.776937008
557 1 1 0.0 13.450331688 27.529546738 2.051882029
558 1 1 0.0 15.356645584 26.192890167 2.174294949
559 1 1 0.0 5.942433834 20.119724274 27.171199799
560 1 1 0.0 4.436583042 18.664312363 26.146572113
561 1 1 0.0 2.836747885 17.328468323 25.101722717
562 1 1 0.0 33.597522736 3.153398991 2.105139971
563 1 1 0.0 33.556873322 5.481957436 1.996338129
564 1 1 0.0 33.601669312 7.812902927 2.014942884
565 1 1 0.0 30.300096512 2.063340902 29.077323914
566 1 1 0.0 29.368106842 3.67876792 30.476417542
567 1 1 0.0 28.406864166 5.182514191 31.9765625
568 1 1 0.0 11.434811592 15.458350182 30.026641846
569 1 1 0.0 10.590307236 14.132843971 31.748710632
570 1 1 0.0 9.700708389 12.706554413 33.364250183
571 1 1 0.0 20.974227905 32.986499786 14.839915276
572 1 1 0.0 22.838220596 31.694200516 14.30031395
573 1 1 0.0 24.788631439 30.526939392 13.781602859
574 1 1 0.0 17.529249191 15.371522903 22.315540314
575 1 1 0.0 17.946783066 17.286119461 23.578735352
576 1 1 0.0 18.249502182 19.26924324 24.766693115
577 1 1 0.0 25.942174911 9.55988121 30.179954529
578 1 1 0.0 24.935066223 8.198767662 31.78269577
579 1 1 0.0 23.92348671 6.725921154 33.280391693
580 1 1 0.0 26.162286758 1.720702052 28.016138077
581 1 1 0.0 26.638271332 3.99733305 28.177577972
582 1 1 0.0 27.060371399 6.290178776 28.196285248
583 1 1 0.0 18.225521088 28.085884094 1.401669979
584 1 1 0.0 20.265594482 29.213726044 1.443492055
585 1 1 0.0 22.240972519 30.451320648 1.39983201