#Input file for lammps
 
3550 atoms
3 atom types
 
0.0 164 xlo xhi
0.0 164 ylo yhi
0.0 164 zlo zhi
 
Masses
 
1 1.008
2 12
3 14
 
Atoms
 
      1 1 0       68.407      81.3696      60.6467
      2 2 0      68.6021      81.9175       61.573
      3 1 0      67.6649      81.8767      62.1374
      4 2 0       69.761        81.19      62.3958
      5 1 0      69.5165      80.1441      62.5735
      6 1 0      70.6866      81.1572      61.8327
      7 2 0      69.9634      81.9197      63.7267
      8 1 0        69.04      81.9108      64.3107
      9 2 0      71.0988      81.1771      64.5076
     10 1 0      70.8462      80.1328      64.6768
     11 1 0      72.0184      81.1505      63.9312
     12 2 0      71.3124      81.9288      65.8624
     13 1 0        70.39      81.9234      66.4507
     14 2 0      72.4466      81.1755      66.6301
     15 1 0      72.1897       80.131      66.7949
     16 1 0      73.3641      81.1478      66.0498
     17 2 0      72.6602      81.9276      67.9847
     18 1 0      71.7365      81.9228      68.5721
     19 2 0      73.7953      81.1715       68.748
     20 1 0      73.5361      80.1273      68.9137
     21 1 0      74.7119      81.1433      68.1677
     22 2 0      74.0063      81.9223      70.1017
     23 1 0       73.081      81.9208      70.6835
     24 2 0      75.1391       81.163      70.8729
     25 1 0      74.8874      80.1227      71.0414
     26 1 0       76.058      81.1372      70.2964
     27 2 0      74.4245      83.3058      69.8837
     28 3 0      74.7584      84.4094      69.7101
     29 2 0      73.0552      83.3145      67.7274
     30 3 0      73.3686      84.4141      67.5232
     31 2 0      71.7108      83.3151      65.6116
     32 3 0      72.0272      84.4158      65.4127
     33 2 0      70.3719      83.3156      63.4975
     34 3 0      70.6934      84.4147      63.3171
     35 2 0      68.9991      83.3402      61.2762
     36 3 0      69.3033      84.4311      61.0487
     37 2 0       75.339      81.9384      72.2189
     38 1 0      74.4204       81.936      72.8122
     39 2 0      76.4775      81.1892      72.9846
     40 1 0      76.2212      80.1429      73.1486
     41 1 0      77.3941       81.159      72.4047
     42 2 0      76.6857      81.9371      74.3397
     43 1 0      75.7634      81.9277      74.9263
     44 2 0      77.8217      81.1791      75.1026
     45 1 0      77.5653      80.1342      75.2661
     46 1 0      78.7385      81.1521      74.5212
     47 2 0      78.0346      81.9315      76.4568
     48 1 0      77.1112      81.9256      77.0435
     49 2 0      79.1691      81.1757      77.2215
     50 1 0      78.9108      80.1314      77.3849
     51 1 0      80.0856      81.1485      76.6396
     52 2 0      79.3807      81.9295      78.5756
     53 1 0       78.457      81.9241      79.1618
     54 2 0      80.5166      81.1725      79.3386
     55 1 0      80.2565      80.1281       79.503
     56 1 0      81.4326      81.1444      78.7569
     57 2 0      80.7272      81.9235      80.6914
     58 1 0      79.8008      81.9222      81.2732
     59 2 0        81.86      81.1636      81.4626
     60 1 0      81.6078      80.1244      81.6308
     61 1 0      82.7783      81.1386      80.8857
     62 2 0       81.145      83.3071      80.4728
     63 3 0      81.4784      84.4107      80.2988
     64 2 0      79.7761      83.3159      78.3177
     65 3 0      80.0895      84.4154      78.1132
     66 2 0      78.4316      83.3177      76.2024
     67 3 0      78.7467      84.4182      76.0004
     68 2 0      77.0948      83.3239      74.1035
     69 3 0      77.4191      84.4232      73.9166
     70 2 0      75.7036      83.3156      71.8846
     71 3 0       75.989      84.4122      71.6108
     72 2 0      82.0591      81.9397      82.8079
     73 1 0      81.1407      81.9372      83.4018
     74 2 0      83.1978      81.1907      83.5743
     75 1 0      82.9416      80.1441      83.7381
     76 1 0      84.1145      81.1602      82.9943
     77 2 0      83.4062      81.9384       84.929
     78 1 0      82.4836       81.929      85.5158
     79 2 0      84.5424      81.1804      85.6928
     80 1 0      84.2856      80.1353      85.8555
     81 1 0      85.4588      81.1534      85.1106
     82 2 0      84.7548      81.9326      87.0464
     83 1 0      83.8318      81.9268       87.633
     84 2 0      85.8893       81.177      87.8106
     85 1 0      85.6312      80.1325      87.9745
     86 1 0       86.806      81.1497      87.2292
     87 2 0      86.1009       81.931       89.165
     88 1 0      85.1776      81.9254      89.7513
     89 2 0      87.2372      81.1737      89.9284
     90 1 0      86.9769      80.1295      90.0926
     91 1 0      88.1529      81.1457      89.3465
     92 2 0      87.4477      81.9245      91.2806
     93 1 0       86.521      81.9235       91.863
     94 2 0      88.5803      81.1646      92.0519
     95 1 0      88.3282      80.1256      92.2202
     96 1 0      89.4987      81.1398      91.4752
     97 2 0      87.8653      83.3085      91.0621
     98 3 0      88.1987      84.4122      90.8882
     99 2 0      86.4961      83.3172      88.9069
    100 3 0      86.8096      84.4167      88.7022
    101 2 0      85.1519      83.3191       86.792
    102 3 0       85.467      84.4195      86.5899
    103 2 0      83.8155      83.3251      84.6935
    104 3 0        84.14      84.4245       84.507
    105 2 0      82.4244      83.3169      82.4745
    106 3 0      82.7099      84.4134       82.201
    107 2 0      88.7799      81.9408      93.3972
    108 1 0      87.8607      81.9385      93.9916
    109 2 0      89.9181      81.1915      94.1634
    110 1 0       89.662      80.1454      94.3275
    111 1 0      90.8348      81.1613      93.5837
    112 2 0      90.1271      81.9392      95.5182
    113 1 0      89.2035      81.9302      96.1055
    114 2 0      91.2625      81.1814      96.2816
    115 1 0       91.006      80.1367      96.4448
    116 1 0      92.1792      81.1546      95.6999
    117 2 0      91.4752      81.9341      97.6358
    118 1 0       90.552       81.928      98.2222
    119 2 0      92.6101      81.1781      98.4008
    120 1 0      92.3514      80.1337      98.5637
    121 1 0      93.5263      81.1508      97.8183
    122 2 0      92.8217      81.9317      99.7544
    123 1 0      91.8976      81.9265      100.341
    124 2 0      93.9573      81.1748      100.517
    125 1 0      93.6972      80.1305      100.682
    126 1 0      94.8733      81.1468      99.9357
    127 2 0      94.1677      81.9257      101.871
    128 1 0       93.242      81.9244      102.452
    129 2 0         95.3      81.1669      102.641
    130 1 0      95.0486      80.1262       102.81
    131 1 0      96.2193      81.1408      102.065
    132 2 0      94.5856      83.3095      101.652
    133 3 0      94.9195      84.4131      101.478
    134 2 0       93.217      83.3184      99.4966
    135 3 0      93.5304      84.4179      99.2921
    136 2 0      91.8725      83.3201      97.3816
    137 3 0      92.1879      84.4206      97.1798
    138 2 0      90.5356      83.3263      95.2823
    139 3 0      90.8596      84.4257      95.0953
    140 2 0      89.1446       83.318      93.0635
    141 3 0      89.4305      84.4147      92.7906
    142 1 0      95.4386      81.6672      103.599
    143 1 0      107.923       59.206      108.853
    144 2 0      108.745      59.5844      108.238
    145 1 0      109.343      58.7048      107.979
    146 2 0      108.161      60.2507      106.909
    147 1 0      107.524      59.5525       106.37
    148 1 0       107.51      61.0867      107.138
    149 2 0      109.325       60.699      106.021
    150 1 0      109.953      59.8451      105.756
    151 2 0      108.717      61.3394      104.729
    152 1 0       108.08       60.635      104.199
    153 1 0      108.067      62.1735      104.973
    154 2 0      109.907      61.8064      103.827
    155 1 0      110.539      60.9549      103.559
    156 2 0      109.284      62.4416      102.541
    157 1 0      108.646      61.7335      102.017
    158 1 0      108.632      63.2735      102.789
    159 2 0      110.474      62.9089      101.639
    160 1 0      111.107      62.0565      101.373
    161 2 0      109.846      63.5438      100.356
    162 1 0       109.21      62.8337      99.8317
    163 1 0      109.194      64.3746      100.604
    164 2 0      111.035      64.0081      99.4554
    165 1 0      111.669      63.1561      99.1958
    166 2 0      110.411      64.6391      98.1647
    167 1 0      109.775      63.9374      97.6374
    168 1 0      109.761      65.4729      98.4097
    169 2 0      111.852      65.0154      100.129
    170 3 0      112.504      65.8192      100.667
    171 2 0      111.282      63.8989      102.355
    172 3 0      111.923       64.684      102.922
    173 2 0      110.717      62.7989      104.535
    174 3 0       111.36      63.5869      105.098
    175 2 0       110.15      61.7038      106.713
    176 3 0      110.799      62.4947      107.257
    177 2 0      109.561      60.5942      109.002
    178 3 0      110.186      61.3684      109.588
    179 2 0      111.619      65.1051       97.284
    180 1 0      112.255       64.258      97.0123
    181 2 0      110.997       65.746      96.0009
    182 1 0      110.357      65.0376      95.4761
    183 1 0      110.343      66.5759      96.2475
    184 2 0      112.185      66.2066      95.0983
    185 1 0      112.814      65.3533      94.8303
    186 2 0      111.556      66.8413      93.8145
    187 1 0      110.917      66.1336      93.2908
    188 1 0      110.904       67.673      94.0637
    189 2 0      112.746      67.3082      92.9133
    190 1 0      113.378      66.4555      92.6471
    191 2 0       112.12      67.9426      91.6293
    192 1 0      111.482      67.2333      91.1064
    193 1 0      111.467      68.7738       91.879
    194 2 0      113.311      68.4089      90.7292
    195 1 0      113.943      67.5562      90.4638
    196 2 0      112.683       69.044      89.4458
    197 1 0      112.046      68.3331      88.9225
    198 1 0       112.03      69.8744      89.6951
    199 2 0      113.872      69.5082      88.5459
    200 1 0      114.506      68.6553      88.2866
    201 2 0      113.246      70.1389       87.255
    202 1 0      112.612      69.4372      86.7285
    203 1 0      112.597      70.9726      87.5007
    204 2 0      114.689      70.5152      89.2206
    205 3 0       115.34      71.3187      89.7585
    206 2 0      114.119       69.399       91.445
    207 3 0      114.759      70.1841      92.0127
    208 2 0      113.555      68.2995      93.6256
    209 3 0      114.197      69.0865      94.1911
    210 2 0      112.999      67.2081      95.7919
    211 3 0      113.644       68.002      96.3414
    212 2 0      112.392      66.0672      98.0699
    213 3 0      113.006      66.8293      98.7034
    214 2 0      114.455      70.6046      86.3753
    215 1 0      115.091      69.7576      86.1031
    216 2 0      113.834      71.2457      85.0917
    217 1 0      113.193      70.5373      84.5669
    218 1 0      113.179      72.0756      85.3382
    219 2 0      115.022      71.7063      84.1893
    220 1 0       115.65      70.8529      83.9212
    221 2 0      114.393      72.3413      82.9047
    222 1 0      113.753      71.6332      82.3816
    223 1 0       113.74      73.1726      83.1547
    224 2 0      115.582      72.8076      82.0041
    225 1 0      116.214      71.9554      81.7379
    226 2 0      114.956      73.4421      80.7206
    227 1 0      114.318       72.733      80.1971
    228 1 0      114.304      74.2735      80.9697
    229 2 0      116.148      73.9085      79.8203
    230 1 0       116.78      73.0561      79.5545
    231 2 0      115.519      74.5439      78.5363
    232 1 0      114.882      73.8329      78.0133
    233 1 0      114.866      75.3741      78.7858
    234 2 0      116.708      75.0079      77.6369
    235 1 0      117.342      74.1548      77.3773
    236 2 0      116.082      75.6385      76.3459
    237 1 0      115.448       74.937      75.8194
    238 1 0      115.434      76.4722      76.5916
    239 2 0      117.525      76.0149      78.3118
    240 3 0      118.177      76.8183      78.8496
    241 2 0      116.955      74.8984      80.5362
    242 3 0      117.596      75.6836      81.1041
    243 2 0      116.391      73.7991      82.7165
    244 3 0      117.033      74.5861       83.282
    245 2 0      115.836       72.708      84.8823
    246 3 0      116.481      73.5021      85.4314
    247 2 0      115.229      71.5672      87.1602
    248 3 0      115.843      72.3293      87.7935
    249 2 0      117.291      76.1045      75.4662
    250 1 0      117.928      75.2569      75.1938
    251 2 0       116.67      76.7451      74.1827
    252 1 0      116.029       76.037      73.6579
    253 1 0      116.016      77.5751      74.4291
    254 2 0      117.857      77.2063      73.2801
    255 1 0      118.487      76.3521      73.0121
    256 2 0      117.229      77.8407      71.9961
    257 1 0      116.589      77.1329      71.4727
    258 1 0      116.577      78.6723      72.2457
    259 2 0      118.419      78.3074      71.0951
    260 1 0       119.05      77.4549       70.829
    261 2 0      117.793      78.9421      69.8107
    262 1 0      117.154      78.2325      69.2883
    263 1 0       117.14      79.7731      70.0609
    264 2 0      118.984      79.4083       68.911
    265 1 0      119.616      78.5554      68.6456
    266 2 0      118.355      80.0432      67.6277
    267 1 0      117.718      79.3324      67.1043
    268 1 0      117.702      80.8737      67.8769
    269 2 0      119.544      80.5072      66.7274
    270 1 0      120.178      79.6549      66.4684
    271 2 0       118.92       81.138      65.4378
    272 1 0      118.284      80.4364      64.9101
    273 1 0       118.27       81.972      65.6824
    274 2 0      120.361      81.5144      67.4026
    275 3 0      121.013      82.3182      67.9396
    276 2 0      119.791      80.3985      69.6268
    277 3 0      120.432      81.1836      70.1944
    278 2 0      119.227      79.2989      71.8071
    279 3 0      119.869      80.0861      72.3723
    280 2 0      118.672      78.2074      73.9737
    281 3 0      119.317      79.0011      74.5234
    282 2 0      118.065      77.0667      76.2516
    283 3 0      118.679      77.8292      76.8843
    284 1 0      119.741      81.4431      64.7893
    285 1 0      139.429      119.953      96.1818
    286 2 0      140.173      120.748      96.2804
    287 1 0      141.145      120.246      96.2289
    288 2 0       140.03      121.774      95.0652
    289 1 0      140.095      121.258      94.1087
    290 1 0      139.051       122.24      95.0524
    291 2 0      141.131      122.833      95.1716
    292 1 0      142.116      122.363      95.1385
    293 2 0      140.964      123.815      93.9637
    294 1 0      141.027      123.289      93.0138
    295 1 0      139.979      124.272       93.963
    296 2 0      142.082      124.902      94.0786
    297 1 0      143.071      124.437      94.0467
    298 2 0      141.903      125.873      92.8664
    299 1 0      141.965      125.342      91.9188
    300 1 0      140.916      126.326      92.8666
    301 2 0      143.021       126.96      92.9817
    302 1 0       144.01      126.493      92.9509
    303 2 0      142.837      127.929      91.7684
    304 1 0      142.902      127.396      90.8213
    305 1 0      141.851      128.381      91.7684
    306 2 0      143.956      129.013      91.8834
    307 1 0      144.943      128.543      91.8581
    308 2 0      143.779      129.982      90.6648
    309 1 0      143.843      129.458      89.7185
    310 1 0      142.795      130.438       90.665
    311 2 0       143.83      129.779      93.1218
    312 3 0      143.729      130.391      94.1096
    313 2 0      142.877      127.691      94.2431
    314 3 0      142.762       128.27      95.2432
    315 2 0      141.941      125.638      95.3363
    316 3 0      141.829      126.223      96.3348
    317 2 0      141.003      123.591      96.4276
    318 3 0      140.903      124.188      97.4165
    319 2 0      140.004      121.476      97.5886
    320 3 0      139.874      122.034      98.5918
    321 2 0      144.903      131.063      90.8073
    322 1 0      145.895      130.604      90.7753
    323 2 0      144.721      132.038      89.5986
    324 1 0      144.782      131.506      88.6495
    325 1 0      143.734      132.489      89.5965
    326 2 0      145.841       133.12       89.711
    327 1 0      146.829      132.652      89.6761
    328 2 0      145.657      134.088      88.4961
    329 1 0      145.718      133.556      87.5484
    330 1 0      144.669       134.54      88.4974
    331 2 0      146.775      135.175      88.6118
    332 1 0      147.764      134.707      88.5803
    333 2 0      146.593      136.143      87.3985
    334 1 0      146.655       135.61      86.4519
    335 1 0      145.605      136.594      87.3999
    336 2 0      147.712      137.229      87.5159
    337 1 0        148.7      136.761      87.4851
    338 2 0      147.528      138.198      86.3017
    339 1 0      147.592      137.664      85.3551
    340 1 0       146.54      138.648      86.3024
    341 2 0      148.646      139.282      86.4174
    342 1 0      149.633      138.811      86.3924
    343 2 0      148.469       140.25      85.1982
    344 1 0      148.533      139.726      84.2531
    345 1 0      147.485      140.706      85.1993
    346 2 0      148.519      140.047      87.6562
    347 3 0      148.418      140.658      88.6442
    348 2 0      147.567       137.96       88.777
    349 3 0      147.452      138.539      89.7772
    350 2 0      146.632      135.908      89.8711
    351 3 0      146.518       136.49      90.8709
    352 2 0      145.706      133.871      90.9613
    353 3 0        145.6      134.467      91.9522
    354 2 0      144.712       131.73      92.0957
    355 3 0      144.557      132.254      93.1256
    356 2 0      149.593      141.331      85.3417
    357 1 0      150.585      140.872      85.3094
    358 2 0      149.411      142.306       84.133
    359 1 0      149.472      141.774      83.1836
    360 1 0      148.424      142.757      84.1306
    361 2 0      150.531      143.388      84.2453
    362 1 0      151.519       142.92      84.2103
    363 2 0      150.347      144.356      83.0299
    364 1 0      150.408      143.824      82.0826
    365 1 0      149.359      144.808      83.0317
    366 2 0      151.465      145.442      83.1459
    367 1 0      152.453      144.975      83.1144
    368 2 0      151.283      146.411      81.9329
    369 1 0      151.345      145.878      80.9859
    370 1 0      150.295      146.863       81.934
    371 2 0      152.402      147.497      82.0504
    372 1 0       153.39       147.03      82.0192
    373 2 0      152.218      148.466      80.8358
    374 1 0      152.281      147.932      79.8894
    375 1 0       151.23      148.916      80.8366
    376 2 0      153.335      149.549      80.9514
    377 1 0      154.323      149.079      80.9266
    378 2 0      153.159      150.518      79.7323
    379 1 0      153.222      149.994      78.7873
    380 1 0      152.175      150.974      79.7334
    381 2 0      153.209      150.315      82.1907
    382 3 0      153.108      150.926      83.1787
    383 2 0      152.257      148.227      83.3115
    384 3 0      152.142      148.807      84.3116
    385 2 0      151.322      146.176      84.4054
    386 3 0      151.208      146.758      85.4051
    387 2 0      150.396       144.14      85.4952
    388 3 0       150.29      144.736       86.486
    389 2 0      149.402      141.999      86.6297
    390 3 0      149.248      142.523      87.6594
    391 2 0      154.282      151.599      79.8758
    392 1 0      155.275       151.14      79.8436
    393 2 0        154.1      152.574      78.6669
    394 1 0      154.162      152.042      77.7179
    395 1 0      153.114      153.025      78.6647
    396 2 0       155.22      153.656      78.7791
    397 1 0      156.209      153.187      78.7446
    398 2 0      155.036      154.624      77.5643
    399 1 0      155.097      154.092       76.617
    400 1 0      154.049      155.076      77.5659
    401 2 0      156.155       155.71      77.6803
    402 1 0      157.143      155.243      77.6487
    403 2 0      155.973      156.679      76.4666
    404 1 0      156.035      156.146      75.5202
    405 1 0      154.985       157.13      76.4683
    406 2 0      157.091      157.765      76.5841
    407 1 0       158.08      157.297      76.5535
    408 2 0      156.907      158.733      75.3701
    409 1 0      156.971      158.199      74.4235
    410 1 0       155.92      159.184      75.3708
    411 2 0      158.026      159.817      75.4855
    412 1 0      159.012      159.347      75.4606
    413 2 0      157.849      160.785      74.2678
    414 1 0      157.912      160.262      73.3209
    415 1 0      156.864      161.242      74.2674
    416 2 0      157.899      160.583      76.7247
    417 3 0      157.798      161.194      77.7122
    418 2 0      156.947      158.496      77.8454
    419 3 0      156.832      159.075      78.8456
    420 2 0      156.012      156.444      78.9393
    421 3 0      155.898      157.026      79.9389
    422 2 0      155.086      154.407      80.0296
    423 3 0      154.979      155.003      81.0208
    424 2 0      154.092      152.266       81.164
    425 3 0      153.937      152.791      82.1936
    426 1 0       158.64      161.533      74.3233
    427 1 0      33.3213      10.3986      50.8261
    428 2 0      33.8743      11.2789      50.4861
    429 1 0      33.2136      12.1299      50.6806
    430 2 0      35.2179      11.4324      51.3349
    431 1 0      35.0048      11.4602      52.4022
    432 1 0      35.8646      10.5711       51.213
    433 2 0      35.9375      12.7139      50.9054
    434 1 0      35.2985      13.5844      51.0725
    435 2 0       37.243      12.8351      51.7607
    436 1 0      37.0191      12.8587      52.8248
    437 1 0      37.8795      11.9654      51.6299
    438 2 0      37.9828      14.1388      51.3144
    439 1 0      37.3466      15.0134       51.479
    440 2 0      39.2818      14.2462      52.1773
    441 1 0      39.0523      14.2674      53.2408
    442 1 0      39.9148      13.3736      52.0469
    443 2 0      40.0217      15.5498      51.7306
    444 1 0      39.3838      16.4242      51.8945
    445 2 0      41.3196      15.6523      52.5953
    446 1 0      41.0883      15.6752      53.6587
    447 1 0      41.9518      14.7799      52.4653
    448 2 0      42.0566      16.9558      52.1498
    449 1 0      41.4155      17.8265      52.3092
    450 2 0      43.3552      17.0656      53.0194
    451 1 0      43.1322      17.0891      54.0793
    452 1 0       43.991      16.1963      52.8878
    453 2 0      42.4328      16.8989      50.7385
    454 3 0      42.7333      16.8537      49.6128
    455 2 0      40.3619      15.4668      50.3083
    456 3 0      40.6318      15.4008      49.1806
    457 2 0      38.3286      14.0603      49.8939
    458 3 0      38.6033      13.9981      48.7662
    459 2 0      36.3012      12.6532      49.4799
    460 3 0      36.5874      12.6055      48.3575
    461 2 0      34.2035      11.1672      49.0202
    462 3 0      34.4559      11.0818      47.8962
    463 2 0      44.0803      18.3716      52.5485
    464 1 0      43.4496        19.25      52.7111
    465 2 0      45.3827      18.4765      53.4068
    466 1 0      45.1534      18.4962      54.4719
    467 1 0       46.015       17.604       53.279
    468 2 0      46.1176      19.7815      52.9645
    469 1 0      45.4805      20.6538      53.1327
    470 2 0       47.416       19.883      53.8309
    471 1 0      47.1866      19.9027      54.8945
    472 1 0      48.0481      19.0098      53.6995
    473 2 0      48.1552      21.1866      53.3839
    474 1 0      47.5173      22.0601      53.5487
    475 2 0      49.4531      21.2906      54.2485
    476 1 0      49.2218      21.3111      55.3116
    477 1 0      50.0846       20.417      54.1174
    478 2 0       50.191      22.5949      53.8002
    479 1 0      49.5527      23.4681      53.9643
    480 2 0      51.4896      22.6966      54.6656
    481 1 0       51.257      22.7187       55.729
    482 1 0      52.1206      21.8232      54.5353
    483 2 0      52.2259      23.9995      54.2197
    484 1 0      51.5837      24.8706      54.3791
    485 2 0      53.5244      24.1091      55.0899
    486 1 0      53.3009      24.1328      56.1488
    487 1 0      54.1597      23.2399      54.9575
    488 2 0      52.6015      23.9422      52.8082
    489 3 0      52.9014      23.8968      51.6824
    490 2 0      50.5314      22.5111      52.3782
    491 3 0      50.8012      22.4448      51.2504
    492 2 0      48.4983      21.1053      51.9628
    493 3 0      48.7707      21.0408      50.8346
    494 2 0      46.4787      19.7124      51.5464
    495 3 0      46.7652      19.6578      50.4223
    496 2 0      44.3633      18.2283        51.12
    497 3 0      44.5813      18.1094       49.981
    498 2 0      54.2487      25.4149      54.6182
    499 1 0      53.6183      26.2937       54.781
    500 2 0      55.5515      25.5204      55.4764
    501 1 0      55.3222        25.54      56.5418
    502 1 0      56.1837      24.6477      55.3489
    503 2 0      56.2863      26.8251      55.0343
    504 1 0      55.6491      27.6976      55.2025
    505 2 0      57.5854      26.9272      55.9009
    506 1 0      57.3552      26.9464      56.9645
    507 1 0      58.2168      26.0535      55.7694
    508 2 0      58.3237      28.2304      55.4539
    509 1 0      57.6862      29.1036      55.6186
    510 2 0      59.6215      28.3341      56.3183
    511 1 0      59.3907      28.3549      57.3816
    512 1 0      60.2535      27.4608      56.1873
    513 2 0      60.3596      29.6386      55.8698
    514 1 0      59.7216      30.5118      56.0342
    515 2 0      61.6586      29.7406      56.7356
    516 1 0      61.4258      29.7625      57.7988
    517 1 0      62.2894       28.867      56.6052
    518 2 0      62.3946      31.0428      56.2897
    519 1 0      61.7524      31.9146       56.449
    520 2 0       63.693      31.1527      57.1598
    521 1 0      63.4696      31.1764      58.2186
    522 1 0      64.3284      30.2835      57.0274
    523 2 0      62.7701      30.9858      54.8779
    524 3 0        63.07      30.9405       53.752
    525 2 0      60.6996      29.5547      54.4479
    526 3 0      60.9695      29.4881      53.3202
    527 2 0       58.667      28.1491      54.0325
    528 3 0      58.9393      28.0845      52.9044
    529 2 0      56.6479      26.7564      53.6164
    530 3 0      56.9346      26.7021      52.4923
    531 2 0      54.5326      25.2723      53.1899
    532 3 0      54.7507      25.1535       52.051
    533 2 0      64.4177      32.4583      56.6881
    534 1 0      63.7867      33.3378       56.851
    535 2 0      65.7199      32.5637      57.5467
    536 1 0      65.4909      32.5836      58.6116
    537 1 0      66.3524      31.6913      57.4189
    538 2 0      66.4554      33.8682      57.1045
    539 1 0      65.8174      34.7416      57.2724
    540 2 0      67.7536      33.9703      57.9708
    541 1 0      67.5239      33.9899      59.0341
    542 1 0      68.3854      33.0969      57.8392
    543 2 0      68.4925       35.274      57.5235
    544 1 0      67.8547      36.1471      57.6884
    545 2 0      69.7909      35.3782      58.3884
    546 1 0      69.5591      35.3983      59.4514
    547 1 0       70.422      34.5041      58.2571
    548 2 0      70.5286      36.6819      57.9401
    549 1 0      69.8899      37.5554      58.1041
    550 2 0      71.8268      36.7837      58.8055
    551 1 0      71.5943      36.8059      59.8688
    552 1 0       72.458      35.9104      58.6751
    553 2 0      72.5631      38.0871      58.3598
    554 1 0      71.9214      38.9575       58.519
    555 2 0       73.861      38.1964      59.2286
    556 1 0      73.6383      38.2199      60.2891
    557 1 0      74.4972       37.327      59.0975
    558 2 0      72.9387      38.0295       56.948
    559 3 0      73.2394      37.9845      55.8223
    560 2 0      70.8689      36.5983      56.5178
    561 3 0      71.1387       36.532      55.3901
    562 2 0      68.8359      35.1928      56.1026
    563 3 0      69.1086      35.1284      54.9744
    564 2 0      66.8161      33.7996      55.6862
    565 3 0      67.1023      33.7451       54.562
    566 2 0      64.7009      32.3156      55.2597
    567 3 0      64.9196      32.1972      54.1208
    568 1 0      74.3713      39.1166      58.9441
    569 1 0      148.541      85.6281      29.7286
    570 2 0      149.186      85.1521       30.472
    571 1 0      149.365      85.9175      31.2341
    572 2 0       148.43       83.906      31.1241
    573 1 0      147.469      84.2052      31.5375
    574 1 0      148.181      83.1591      30.3791
    575 2 0      149.313       83.303      32.2203
    576 1 0      149.524       84.047      32.9923
    577 2 0       148.54      82.0916      32.8404
    578 1 0      147.579      82.4006      33.2472
    579 1 0      148.296      81.3531      32.0829
    580 2 0      149.446      81.4696      33.9529
    581 1 0      149.661      82.2111      34.7282
    582 2 0       148.66      80.2637      34.5625
    583 1 0        147.7       80.578      34.9662
    584 1 0      148.415      79.5284      33.8021
    585 2 0      149.567      79.6417      35.6749