# LAMMPS data file written by Ovito Basic 3.0.0-dev791
264 atoms
2 atom types
0.0 11.7098331451 xlo xhi
0.0 11.7098331451 ylo yhi
0.0 22.720413208 zlo zhi

Atoms  # charge

1 1 0.0 0.0 0.0 22.010398865
2 1 0.0 0.0 0.0 19.170345306
3 1 0.0 0.0 0.0 16.330295563
4 1 0.0 0.0 0.0 13.490243912
5 1 0.0 8.954577446 0.688813746 22.010398865
6 1 0.0 8.954577446 0.688813746 19.170345306
7 1 0.0 8.954577446 0.688813746 16.330295563
8 1 0.0 8.954577446 0.688813746 13.490243912
9 1 0.0 9.643392563 3.444068432 22.010398865
10 1 0.0 9.643392563 3.444068432 19.170345306
11 1 0.0 9.643392563 3.444068432 16.330295563
12 1 0.0 9.643392563 3.444068432 13.490243912
13 1 0.0 10.332204819 6.199323177 22.010398865
14 1 0.0 10.332204819 6.199323177 19.170345306
15 1 0.0 10.332204819 6.199323177 16.330295563
16 1 0.0 10.332204819 6.199323177 13.490243912
17 1 0.0 11.021019936 8.954577446 22.010398865
18 1 0.0 11.021019936 8.954577446 19.170345306
19 1 0.0 11.021019936 8.954577446 16.330295563
20 1 0.0 11.021019936 8.954577446 13.490243912
21 1 0.0 0.688813746 2.755254984 22.010398865
22 1 0.0 0.688813746 2.755254984 19.170345306
23 1 0.0 0.688813746 2.755254984 16.330295563
24 1 0.0 0.688813746 2.755254984 13.490243912
25 1 0.0 1.377627492 5.510509968 22.010398865
26 1 0.0 1.377627492 5.510509968 19.170345306
27 1 0.0 1.377627492 5.510509968 16.330295563
28 1 0.0 1.377627492 5.510509968 13.490243912
29 1 0.0 2.066441298 8.26576519 22.010398865
30 1 0.0 2.066441298 8.26576519 19.170345306
31 1 0.0 2.066441298 8.26576519 16.330295563
32 1 0.0 2.066441298 8.26576519 13.490243912
33 1 0.0 2.755254984 11.021019936 22.010398865
34 1 0.0 2.755254984 11.021019936 19.170345306
35 1 0.0 2.755254984 11.021019936 16.330295563
36 1 0.0 2.755254984 11.021019936 13.490243912
37 1 0.0 3.444068432 2.066441298 22.010398865
38 1 0.0 3.444068432 2.066441298 19.170345306
39 1 0.0 3.444068432 2.066441298 16.330295563
40 1 0.0 3.444068432 2.066441298 13.490243912
41 1 0.0 4.132882595 4.821696281 22.010398865
42 1 0.0 4.132882595 4.821696281 19.170345306
43 1 0.0 4.132882595 4.821696281 16.330295563
44 1 0.0 4.132882595 4.821696281 13.490243912
45 1 0.0 4.821696281 7.57695055 22.010398865
46 1 0.0 4.821696281 7.57695055 19.170345306
47 1 0.0 4.821696281 7.57695055 16.330295563
48 1 0.0 4.821696281 7.57695055 13.490243912
49 1 0.0 5.510509968 10.332204819 22.010398865
50 1 0.0 5.510509968 10.332204819 19.170345306
51 1 0.0 5.510509968 10.332204819 16.330295563
52 1 0.0 5.510509968 10.332204819 13.490243912
53 1 0.0 6.199323177 1.377627492 22.010398865
54 1 0.0 6.199323177 1.377627492 19.170345306
55 1 0.0 6.199323177 1.377627492 16.330295563
56 1 0.0 6.199323177 1.377627492 13.490243912
57 1 0.0 6.888136864 4.132882595 22.010398865
58 1 0.0 6.888136864 4.132882595 19.170345306
59 1 0.0 6.888136864 4.132882595 16.330295563
60 1 0.0 6.888136864 4.132882595 13.490243912
61 1 0.0 7.57695055 6.888136864 22.010398865
62 1 0.0 7.57695055 6.888136864 19.170345306
63 1 0.0 7.57695055 6.888136864 16.330295563
64 1 0.0 7.57695055 6.888136864 13.490243912
65 1 0.0 8.26576519 9.643392563 22.010398865
66 1 0.0 8.26576519 9.643392563 19.170345306
67 1 0.0 8.26576519 9.643392563 16.330295563
68 1 0.0 8.26576519 9.643392563 13.490243912
69 1 0.0 1.722034216 1.033220649 20.590373993
70 1 0.0 1.722034216 1.033220649 17.750322342
71 1 0.0 1.722034216 1.033220649 14.910269737
72 1 0.0 1.722034216 1.033220649 12.070218086
73 1 0.0 10.6766119 1.722034216 20.590373993
74 1 0.0 10.6766119 1.722034216 17.750322342
75 1 0.0 10.6766119 1.722034216 14.910269737
76 1 0.0 10.6766119 1.722034216 12.070218086
77 1 0.0 11.365427017 4.477288723 20.590373993
78 1 0.0 11.365427017 4.477288723 17.750322342
79 1 0.0 11.365427017 4.477288723 14.910269737
80 1 0.0 11.365427017 4.477288723 12.070218086
81 1 0.0 0.344407141 7.232543945 20.590373993
82 1 0.0 0.344407141 7.232543945 17.750322342
83 1 0.0 0.344407141 7.232543945 14.910269737
84 1 0.0 0.344407141 7.232543945 12.070218086
85 1 0.0 1.033220053 9.987798691 20.590373993
86 1 0.0 1.033220053 9.987798691 17.750322342
87 1 0.0 1.033220053 9.987798691 14.910269737
88 1 0.0 1.033220053 9.987798691 12.070218086
89 1 0.0 2.410848141 3.788475275 20.590373993
90 1 0.0 2.410848141 3.788475275 17.750322342
91 1 0.0 2.410848141 3.788475275 14.910269737
92 1 0.0 2.410848141 3.788475275 12.070218086
93 1 0.0 3.099661589 6.543729782 20.590373993
94 1 0.0 3.099661589 6.543729782 17.750322342
95 1 0.0 3.099661589 6.543729782 14.910269737
96 1 0.0 3.099661589 6.543729782 12.070218086
97 1 0.0 3.788475275 9.298984528 20.590373993
98 1 0.0 3.788475275 9.298984528 17.750322342
99 1 0.0 3.788475275 9.298984528 14.910269737
100 1 0.0 3.788475275 9.298984528 12.070218086
101 1 0.0 4.477288723 0.344407141 20.590373993
102 1 0.0 4.477288723 0.344407141 17.750322342
103 1 0.0 4.477288723 0.344407141 14.910269737
104 1 0.0 4.477288723 0.344407141 12.070218086
105 1 0.0 5.166102409 3.099661589 20.590373993
106 1 0.0 5.166102409 3.099661589 17.750322342
107 1 0.0 5.166102409 3.099661589 14.910269737
108 1 0.0 5.166102409 3.099661589 12.070218086
109 1 0.0 5.854916096 5.854916096 20.590373993
110 1 0.0 5.854916096 5.854916096 17.750322342
111 1 0.0 5.854916096 5.854916096 14.910269737
112 1 0.0 5.854916096 5.854916096 12.070218086
113 1 0.0 6.543729782 8.610171318 20.590373993
114 1 0.0 6.543729782 8.610171318 17.750322342
115 1 0.0 6.543729782 8.610171318 14.910269737
116 1 0.0 6.543729782 8.610171318 12.070218086
117 1 0.0 7.232542992 11.365427017 20.590373993
118 1 0.0 7.232542992 11.365427017 17.750322342
119 1 0.0 7.232542992 11.365427017 14.910269737
120 1 0.0 7.232542992 11.365427017 12.070218086
121 1 0.0 7.921357632 2.410848141 20.590373993
122 1 0.0 7.921357632 2.410848141 17.750322342
123 1 0.0 7.921357632 2.410848141 14.910269737
124 1 0.0 7.921357632 2.410848141 12.070218086
125 1 0.0 8.610171318 5.166102409 20.590373993
126 1 0.0 8.610171318 5.166102409 17.750322342
127 1 0.0 8.610171318 5.166102409 14.910269737
128 1 0.0 8.610171318 5.166102409 12.070218086
129 1 0.0 9.298984528 7.921357632 20.590373993
130 1 0.0 9.298984528 7.921357632 17.750322342
131 1 0.0 9.298984528 7.921357632 14.910269737
132 1 0.0 9.298984528 7.921357632 12.070218086
133 1 0.0 9.987798691 10.6766119 20.590373993
134 1 0.0 9.987798691 10.6766119 17.750322342
135 1 0.0 9.987798691 10.6766119 14.910269737
136 1 0.0 9.987798691 10.6766119 12.070218086
137 2 0.0 11.705423355 11.705423355 0.710012853
138 2 0.0 11.705423355 11.705423355 3.550064325
139 2 0.0 11.705423355 11.705423355 6.390115738
140 2 0.0 11.705423355 11.705423355 9.230166435
141 2 0.0 11.705423355 3.010454178 0.710012853
142 2 0.0 11.705423355 3.010454178 3.550064325
143 2 0.0 11.705423355 3.010454178 6.390115738
144 2 0.0 11.705423355 3.010454178 9.230166435
145 2 0.0 11.705423355 5.850505829 0.710012853
146 2 0.0 11.705423355 5.850505829 3.550064325
147 2 0.0 11.705423355 5.850505829 6.390115738
148 2 0.0 11.705423355 5.850505829 9.230166435
149 2 0.0 11.705423355 8.69055748 0.710012853
150 2 0.0 11.705423355 8.69055748 3.550064325
151 2 0.0 11.705423355 8.69055748 6.390115738
152 2 0.0 11.705423355 8.69055748 9.230166435
153 2 0.0 3.010454178 11.705423355 0.710012853
154 2 0.0 3.010454178 11.705423355 3.550064325
155 2 0.0 3.010454178 11.705423355 6.390115738
156 2 0.0 3.010454178 11.705423355 9.230166435
157 2 0.0 3.010454178 3.010454178 0.710012853
158 2 0.0 3.010454178 3.010454178 3.550064325
159 2 0.0 3.010454178 3.010454178 6.390115738
160 2 0.0 3.010454178 3.010454178 9.230166435
161 2 0.0 3.010454178 5.850505829 0.710012853
162 2 0.0 3.010454178 5.850505829 3.550064325
163 2 0.0 3.010454178 5.850505829 6.390115738
164 2 0.0 3.010454178 5.850505829 9.230166435
165 2 0.0 3.010454178 8.69055748 0.710012853
166 2 0.0 3.010454178 8.69055748 3.550064325
167 2 0.0 3.010454178 8.69055748 6.390115738
168 2 0.0 3.010454178 8.69055748 9.230166435
169 2 0.0 5.850505829 11.705423355 0.710012853
170 2 0.0 5.850505829 11.705423355 3.550064325
171 2 0.0 5.850505829 11.705423355 6.390115738
172 2 0.0 5.850505829 11.705423355 9.230166435
173 2 0.0 5.850505829 3.010454178 0.710012853
174 2 0.0 5.850505829 3.010454178 3.550064325
175 2 0.0 5.850505829 3.010454178 6.390115738
176 2 0.0 5.850505829 3.010454178 9.230166435
177 2 0.0 5.850505829 5.850505829 0.710012853
178 2 0.0 5.850505829 5.850505829 3.550064325
179 2 0.0 5.850505829 5.850505829 6.390115738
180 2 0.0 5.850505829 5.850505829 9.230166435
181 2 0.0 5.850505829 8.69055748 0.710012853
182 2 0.0 5.850505829 8.69055748 3.550064325
183 2 0.0 5.850505829 8.69055748 6.390115738
184 2 0.0 5.850505829 8.69055748 9.230166435
185 2 0.0 8.69055748 11.705423355 0.710012853
186 2 0.0 8.69055748 11.705423355 3.550064325
187 2 0.0 8.69055748 11.705423355 6.390115738
188 2 0.0 8.69055748 11.705423355 9.230166435
189 2 0.0 8.69055748 3.010454178 0.710012853
190 2 0.0 8.69055748 3.010454178 3.550064325
191 2 0.0 8.69055748 3.010454178 6.390115738
192 2 0.0 8.69055748 3.010454178 9.230166435
193 2 0.0 8.69055748 5.850505829 0.710012853
194 2 0.0 8.69055748 5.850505829 3.550064325
195 2 0.0 8.69055748 5.850505829 6.390115738
196 2 0.0 8.69055748 5.850505829 9.230166435
197 2 0.0 8.69055748 8.69055748 0.710012853
198 2 0.0 8.69055748 8.69055748 3.550064325
199 2 0.0 8.69055748 8.69055748 6.390115738
200 2 0.0 8.69055748 8.69055748 9.230166435
201 2 0.0 1.590428829 1.590428829 2.1300385
202 2 0.0 1.590428829 1.590428829 4.970089912
203 2 0.0 1.590428829 1.590428829 7.810141563
204 2 0.0 1.590428829 1.590428829 10.650194168
205 2 0.0 1.590428829 4.430480003 2.1300385
206 2 0.0 1.590428829 4.430480003 4.970089912
207 2 0.0 1.590428829 4.430480003 7.810141563
208 2 0.0 1.590428829 4.430480003 10.650194168
209 2 0.0 1.590428829 7.270531178 2.1300385
210 2 0.0 1.590428829 7.270531178 4.970089912
211 2 0.0 1.590428829 7.270531178 7.810141563
212 2 0.0 1.590428829 7.270531178 10.650194168
213 2 0.0 1.590428829 10.110584259 2.1300385
214 2 0.0 1.590428829 10.110584259 4.970089912
215 2 0.0 1.590428829 10.110584259 7.810141563
216 2 0.0 1.590428829 10.110584259 10.650194168
217 2 0.0 4.430480003 1.590428829 2.1300385
218 2 0.0 4.430480003 1.590428829 4.970089912
219 2 0.0 4.430480003 1.590428829 7.810141563
220 2 0.0 4.430480003 1.590428829 10.650194168
221 2 0.0 4.430480003 4.430480003 2.1300385
222 2 0.0 4.430480003 4.430480003 4.970089912
223 2 0.0 4.430480003 4.430480003 7.810141563
224 2 0.0 4.430480003 4.430480003 10.650194168
225 2 0.0 4.430480003 7.270531178 2.1300385
226 2 0.0 4.430480003 7.270531178 4.970089912
227 2 0.0 4.430480003 7.270531178 7.810141563
228 2 0.0 4.430480003 7.270531178 10.650194168
229 2 0.0 4.430480003 10.110584259 2.1300385
230 2 0.0 4.430480003 10.110584259 4.970089912
231 2 0.0 4.430480003 10.110584259 7.810141563
232 2 0.0 4.430480003 10.110584259 10.650194168
233 2 0.0 7.270531178 1.590428829 2.1300385
234 2 0.0 7.270531178 1.590428829 4.970089912
235 2 0.0 7.270531178 1.590428829 7.810141563
236 2 0.0 7.270531178 1.590428829 10.650194168
237 2 0.0 7.270531178 4.430480003 2.1300385
238 2 0.0 7.270531178 4.430480003 4.970089912
239 2 0.0 7.270531178 4.430480003 7.810141563
240 2 0.0 7.270531178 4.430480003 10.650194168
241 2 0.0 7.270531178 7.270531178 2.1300385
242 2 0.0 7.270531178 7.270531178 4.970089912
243 2 0.0 7.270531178 7.270531178 7.810141563
244 2 0.0 7.270531178 7.270531178 10.650194168
245 2 0.0 7.270531178 10.110584259 2.1300385
246 2 0.0 7.270531178 10.110584259 4.970089912
247 2 0.0 7.270531178 10.110584259 7.810141563
248 2 0.0 7.270531178 10.110584259 10.650194168
249 2 0.0 10.110584259 1.590428829 2.1300385
250 2 0.0 10.110584259 1.590428829 4.970089912
251 2 0.0 10.110584259 1.590428829 7.810141563
252 2 0.0 10.110584259 1.590428829 10.650194168
253 2 0.0 10.110584259 4.430480003 2.1300385
254 2 0.0 10.110584259 4.430480003 4.970089912
255 2 0.0 10.110584259 4.430480003 7.810141563
256 2 0.0 10.110584259 4.430480003 10.650194168
257 2 0.0 10.110584259 7.270531178 2.1300385
258 2 0.0 10.110584259 7.270531178 4.970089912
259 2 0.0 10.110584259 7.270531178 7.810141563
260 2 0.0 10.110584259 7.270531178 10.650194168
261 2 0.0 10.110584259 10.110584259 2.1300385
262 2 0.0 10.110584259 10.110584259 4.970089912
263 2 0.0 10.110584259 10.110584259 7.810141563
264 2 0.0 10.110584259 10.110584259 10.650194168
