# LAMMPS data file written by Ovito Basic 3.0.0-dev791
584 atoms
2 atom types
0.0 17.2753601074 xlo xhi
0.0 17.2753601074 ylo yhi
0.0 22.720413208 zlo zhi

Atoms  # charge

1 1 0.0 0.0 0.0 22.010398865
2 1 0.0 0.0 0.0 19.170345306
3 1 0.0 0.0 0.0 16.330295563
4 1 0.0 0.0 0.0 13.490243912
5 1 0.0 14.473948479 0.4669016 22.010398865
6 1 0.0 14.473948479 0.4669016 19.170345306
7 1 0.0 14.473948479 0.4669016 16.330295563
8 1 0.0 14.473948479 0.4669016 13.490243912
9 1 0.0 14.940851212 3.268311262 22.010398865
10 1 0.0 14.940851212 3.268311262 19.170345306
11 1 0.0 14.940851212 3.268311262 16.330295563
12 1 0.0 14.940851212 3.268311262 13.490243912
13 1 0.0 15.407752991 6.069720745 22.010398865
14 1 0.0 15.407752991 6.069720745 19.170345306
15 1 0.0 15.407752991 6.069720745 16.330295563
16 1 0.0 15.407752991 6.069720745 13.490243912
17 1 0.0 15.874653816 8.87112999 22.010398865
18 1 0.0 15.874653816 8.87112999 19.170345306
19 1 0.0 15.874653816 8.87112999 16.330295563
20 1 0.0 15.874653816 8.87112999 13.490243912
21 1 0.0 16.341554642 11.672539711 22.010398865
22 1 0.0 16.341554642 11.672539711 19.170345306
23 1 0.0 16.341554642 11.672539711 16.330295563
24 1 0.0 16.341554642 11.672539711 13.490243912
25 1 0.0 16.808458328 14.473948479 22.010398865
26 1 0.0 16.808458328 14.473948479 19.170345306
27 1 0.0 16.808458328 14.473948479 16.330295563
28 1 0.0 16.808458328 14.473948479 13.490243912
29 1 0.0 0.4669016 2.801409483 22.010398865
30 1 0.0 0.4669016 2.801409483 19.170345306
31 1 0.0 0.4669016 2.801409483 16.330295563
32 1 0.0 0.4669016 2.801409483 13.490243912
33 1 0.0 0.933803201 5.602818966 22.010398865
34 1 0.0 0.933803201 5.602818966 19.170345306
35 1 0.0 0.933803201 5.602818966 16.330295563
36 1 0.0 0.933803201 5.602818966 13.490243912
37 1 0.0 1.400704741 8.404229164 22.010398865
38 1 0.0 1.400704741 8.404229164 19.170345306
39 1 0.0 1.400704741 8.404229164 16.330295563
40 1 0.0 1.400704741 8.404229164 13.490243912
41 1 0.0 1.867606401 11.205637932 22.010398865
42 1 0.0 1.867606401 11.205637932 19.170345306
43 1 0.0 1.867606401 11.205637932 16.330295563
44 1 0.0 1.867606401 11.205637932 13.490243912
45 1 0.0 2.334507704 14.007047653 22.010398865
46 1 0.0 2.334507704 14.007047653 19.170345306
47 1 0.0 2.334507704 14.007047653 16.330295563
48 1 0.0 2.334507704 14.007047653 13.490243912
49 1 0.0 2.801409483 16.808458328 22.010398865
50 1 0.0 2.801409483 16.808458328 19.170345306
51 1 0.0 2.801409483 16.808458328 16.330295563
52 1 0.0 2.801409483 16.808458328 13.490243912
53 1 0.0 3.268311262 2.334507704 22.010398865
54 1 0.0 3.268311262 2.334507704 19.170345306
55 1 0.0 3.268311262 2.334507704 16.330295563
56 1 0.0 3.268311262 2.334507704 13.490243912
57 1 0.0 3.735212803 5.135917187 22.010398865
58 1 0.0 3.735212803 5.135917187 19.170345306
59 1 0.0 3.735212803 5.135917187 16.330295563
60 1 0.0 3.735212803 5.135917187 13.490243912
61 1 0.0 4.202114582 7.937326908 22.010398865
62 1 0.0 4.202114582 7.937326908 19.170345306
63 1 0.0 4.202114582 7.937326908 16.330295563
64 1 0.0 4.202114582 7.937326908 13.490243912
65 1 0.0 4.669015408 10.738736153 22.010398865
66 1 0.0 4.669015408 10.738736153 19.170345306
67 1 0.0 4.669015408 10.738736153 16.330295563
68 1 0.0 4.669015408 10.738736153 13.490243912
69 1 0.0 5.135917187 13.540145874 22.010398865
70 1 0.0 5.135917187 13.540145874 19.170345306
71 1 0.0 5.135917187 13.540145874 16.330295563
72 1 0.0 5.135917187 13.540145874 13.490243912
73 1 0.0 5.602818966 16.341554642 22.010398865
74 1 0.0 5.602818966 16.341554642 19.170345306
75 1 0.0 5.602818966 16.341554642 16.330295563
76 1 0.0 5.602818966 16.341554642 13.490243912
77 1 0.0 6.069720745 1.867606401 22.010398865
78 1 0.0 6.069720745 1.867606401 19.170345306
79 1 0.0 6.069720745 1.867606401 16.330295563
80 1 0.0 6.069720745 1.867606401 13.490243912
81 1 0.0 6.536622524 4.669015408 22.010398865
82 1 0.0 6.536622524 4.669015408 19.170345306
83 1 0.0 6.536622524 4.669015408 16.330295563
84 1 0.0 6.536622524 4.669015408 13.490243912
85 1 0.0 7.003523827 7.470425606 22.010398865
86 1 0.0 7.003523827 7.470425606 19.170345306
87 1 0.0 7.003523827 7.470425606 16.330295563
88 1 0.0 7.003523827 7.470425606 13.490243912
89 1 0.0 7.470425606 10.271834373 22.010398865
90 1 0.0 7.470425606 10.271834373 19.170345306
91 1 0.0 7.470425606 10.271834373 16.330295563
92 1 0.0 7.470425606 10.271834373 13.490243912
93 1 0.0 7.937326908 13.073245049 22.010398865
94 1 0.0 7.937326908 13.073245049 19.170345306
95 1 0.0 7.937326908 13.073245049 16.330295563
96 1 0.0 7.937326908 13.073245049 13.490243912
97 1 0.0 8.404229164 15.874653816 22.010398865
98 1 0.0 8.404229164 15.874653816 19.170345306
99 1 0.0 8.404229164 15.874653816 16.330295563
100 1 0.0 8.404229164 15.874653816 13.490243912
101 1 0.0 8.87112999 1.400704741 22.010398865
102 1 0.0 8.87112999 1.400704741 19.170345306
103 1 0.0 8.87112999 1.400704741 16.330295563
104 1 0.0 8.87112999 1.400704741 13.490243912
105 1 0.0 9.338030815 4.202114582 22.010398865
106 1 0.0 9.338030815 4.202114582 19.170345306
107 1 0.0 9.338030815 4.202114582 16.330295563
108 1 0.0 9.338030815 4.202114582 13.490243912
109 1 0.0 9.804933548 7.003523827 22.010398865
110 1 0.0 9.804933548 7.003523827 19.170345306
111 1 0.0 9.804933548 7.003523827 16.330295563
112 1 0.0 9.804933548 7.003523827 13.490243912
113 1 0.0 10.271834373 9.804933548 22.010398865
114 1 0.0 10.271834373 9.804933548 19.170345306
115 1 0.0 10.271834373 9.804933548 16.330295563
116 1 0.0 10.271834373 9.804933548 13.490243912
117 1 0.0 10.738736153 12.606342316 22.010398865
118 1 0.0 10.738736153 12.606342316 19.170345306
119 1 0.0 10.738736153 12.606342316 16.330295563
120 1 0.0 10.738736153 12.606342316 13.490243912
121 1 0.0 11.205637932 15.407752991 22.010398865
122 1 0.0 11.205637932 15.407752991 19.170345306
123 1 0.0 11.205637932 15.407752991 16.330295563
124 1 0.0 11.205637932 15.407752991 13.490243912
125 1 0.0 11.672539711 0.933803201 22.010398865
126 1 0.0 11.672539711 0.933803201 19.170345306
127 1 0.0 11.672539711 0.933803201 16.330295563
128 1 0.0 11.672539711 0.933803201 13.490243912
129 1 0.0 12.13944149 3.735212803 22.010398865
130 1 0.0 12.13944149 3.735212803 19.170345306
131 1 0.0 12.13944149 3.735212803 16.330295563
132 1 0.0 12.13944149 3.735212803 13.490243912
133 1 0.0 12.606342316 6.536622524 22.010398865
134 1 0.0 12.606342316 6.536622524 19.170345306
135 1 0.0 12.606342316 6.536622524 16.330295563
136 1 0.0 12.606342316 6.536622524 13.490243912
137 1 0.0 13.073245049 9.338030815 22.010398865
138 1 0.0 13.073245049 9.338030815 19.170345306
139 1 0.0 13.073245049 9.338030815 16.330295563
140 1 0.0 13.073245049 9.338030815 13.490243912
141 1 0.0 13.540145874 12.13944149 22.010398865
142 1 0.0 13.540145874 12.13944149 19.170345306
143 1 0.0 13.540145874 12.13944149 16.330295563
144 1 0.0 13.540145874 12.13944149 13.490243912
145 1 0.0 14.007047653 14.940851212 22.010398865
146 1 0.0 14.007047653 14.940851212 19.170345306
147 1 0.0 14.007047653 14.940851212 16.330295563
148 1 0.0 14.007047653 14.940851212 13.490243912
149 1 0.0 1.634155631 1.167253852 20.590373993
150 1 0.0 1.634155631 1.167253852 17.750322342
151 1 0.0 1.634155631 1.167253852 14.910269737
152 1 0.0 1.634155631 1.167253852 12.070218086
153 1 0.0 16.108106613 1.634155512 20.590373993
154 1 0.0 16.108106613 1.634155512 17.750322342
155 1 0.0 16.108106613 1.634155512 14.910269737
156 1 0.0 16.108106613 1.634155512 12.070218086
157 1 0.0 16.575006485 4.435564995 20.590373993
158 1 0.0 16.575006485 4.435564995 17.750322342
159 1 0.0 16.575006485 4.435564995 14.910269737
160 1 0.0 16.575006485 4.435564995 12.070218086
161 1 0.0 17.041910172 7.236974239 20.590373993
162 1 0.0 17.041910172 7.236974239 17.750322342
163 1 0.0 17.041910172 7.236974239 14.910269737
164 1 0.0 17.041910172 7.236974239 12.070218086
165 1 0.0 0.233451679 10.038384438 20.590373993
166 1 0.0 0.233451679 10.038384438 17.750322342
167 1 0.0 0.233451679 10.038384438 14.910269737
168 1 0.0 0.233451679 10.038384438 12.070218086
169 1 0.0 0.70035094 12.839794159 20.590373993
170 1 0.0 0.70035094 12.839794159 17.750322342
171 1 0.0 0.70035094 12.839794159 14.910269737
172 1 0.0 0.70035094 12.839794159 12.070218086
173 1 0.0 1.16725421 15.641202927 20.590373993
174 1 0.0 1.16725421 15.641202927 17.750322342
175 1 0.0 1.16725421 15.641202927 14.910269737
176 1 0.0 1.16725421 15.641202927 12.070218086
177 1 0.0 2.101057291 3.968663216 20.590373993
178 1 0.0 2.101057291 3.968663216 17.750322342
179 1 0.0 2.101057291 3.968663216 14.910269737
180 1 0.0 2.101057291 3.968663216 12.070218086
181 1 0.0 2.567958593 6.77007246 20.590373993
182 1 0.0 2.567958593 6.77007246 17.750322342
183 1 0.0 2.567958593 6.77007246 14.910269737
184 1 0.0 2.567958593 6.77007246 12.070218086
185 1 0.0 3.034860373 9.571482658 20.590373993
186 1 0.0 3.034860373 9.571482658 17.750322342
187 1 0.0 3.034860373 9.571482658 14.910269737
188 1 0.0 3.034860373 9.571482658 12.070218086
189 1 0.0 3.501761913 12.372891426 20.590373993
190 1 0.0 3.501761913 12.372891426 17.750322342
191 1 0.0 3.501761913 12.372891426 14.910269737
192 1 0.0 3.501761913 12.372891426 12.070218086
193 1 0.0 3.968663454 15.174302101 20.590373993
194 1 0.0 3.968663454 15.174302101 17.750322342
195 1 0.0 3.968663454 15.174302101 14.910269737
196 1 0.0 3.968663454 15.174302101 12.070218086
197 1 0.0 4.435564995 0.700352967 20.590373993
198 1 0.0 4.435564995 0.700352967 17.750322342
199 1 0.0 4.435564995 0.700352967 14.910269737
200 1 0.0 4.435564995 0.700352967 12.070218086
201 1 0.0 4.902466774 3.501761913 20.590373993
202 1 0.0 4.902466774 3.501761913 17.750322342
203 1 0.0 4.902466774 3.501761913 14.910269737
204 1 0.0 4.902466774 3.501761913 12.070218086
205 1 0.0 5.369368076 6.303171158 20.590373993
206 1 0.0 5.369368076 6.303171158 17.750322342
207 1 0.0 5.369368076 6.303171158 14.910269737
208 1 0.0 5.369368076 6.303171158 12.070218086
209 1 0.0 5.836269855 9.104579926 20.590373993
210 1 0.0 5.836269855 9.104579926 17.750322342
211 1 0.0 5.836269855 9.104579926 14.910269737
212 1 0.0 5.836269855 9.104579926 12.070218086
213 1 0.0 6.303171158 11.905990601 20.590373993
214 1 0.0 6.303171158 11.905990601 17.750322342
215 1 0.0 6.303171158 11.905990601 14.910269737
216 1 0.0 6.303171158 11.905990601 12.070218086
217 1 0.0 6.770072937 14.707400322 20.590373993
218 1 0.0 6.770072937 14.707400322 17.750322342
219 1 0.0 6.770072937 14.707400322 14.910269737
220 1 0.0 6.770072937 14.707400322 12.070218086
221 1 0.0 7.236974239 0.233449623 20.590373993
222 1 0.0 7.236974239 0.233449623 17.750322342
223 1 0.0 7.236974239 0.233449623 14.910269737
224 1 0.0 7.236974239 0.233449623 12.070218086
225 1 0.0 7.703876495 3.034860373 20.590373993
226 1 0.0 7.703876495 3.034860373 17.750322342
227 1 0.0 7.703876495 3.034860373 14.910269737
228 1 0.0 7.703876495 3.034860373 12.070218086
229 1 0.0 8.170777321 5.836269379 20.590373993
230 1 0.0 8.170777321 5.836269379 17.750322342
231 1 0.0 8.170777321 5.836269379 14.910269737
232 1 0.0 8.170777321 5.836269379 12.070218086
233 1 0.0 8.6376791 8.6376791 20.590373993
234 1 0.0 8.6376791 8.6376791 17.750322342
235 1 0.0 8.6376791 8.6376791 14.910269737
236 1 0.0 8.6376791 8.6376791 12.070218086
237 1 0.0 9.104579926 11.439088821 20.590373993
238 1 0.0 9.104579926 11.439088821 17.750322342
239 1 0.0 9.104579926 11.439088821 14.910269737
240 1 0.0 9.104579926 11.439088821 12.070218086
241 1 0.0 9.571481705 14.240499496 20.590373993
242 1 0.0 9.571481705 14.240499496 17.750322342
243 1 0.0 9.571481705 14.240499496 14.910269737
244 1 0.0 9.571481705 14.240499496 12.070218086
245 1 0.0 10.038384438 17.041910172 20.590373993
246 1 0.0 10.038384438 17.041910172 17.750322342
247 1 0.0 10.038384438 17.041910172 14.910269737
248 1 0.0 10.038384438 17.041910172 12.070218086
249 1 0.0 10.505285263 2.567958593 20.590373993
250 1 0.0 10.505285263 2.567958593 17.750322342
251 1 0.0 10.505285263 2.567958593 14.910269737
252 1 0.0 10.505285263 2.567958593 12.070218086
253 1 0.0 10.972187042 5.369368076 20.590373993
254 1 0.0 10.972187042 5.369368076 17.750322342
255 1 0.0 10.972187042 5.369368076 14.910269737
256 1 0.0 10.972187042 5.369368076 12.070218086
257 1 0.0 11.439088821 8.170777321 20.590373993
258 1 0.0 11.439088821 8.170777321 17.750322342
259 1 0.0 11.439088821 8.170777321 14.910269737
260 1 0.0 11.439088821 8.170777321 12.070218086
261 1 0.0 11.905990601 10.972187996 20.590373993
262 1 0.0 11.905990601 10.972187996 17.750322342
263 1 0.0 11.905990601 10.972187996 14.910269737
264 1 0.0 11.905990601 10.972187996 12.070218086
265 1 0.0 12.372891426 13.773596764 20.590373993
266 1 0.0 12.372891426 13.773596764 17.750322342
267 1 0.0 12.372891426 13.773596764 14.910269737
268 1 0.0 12.372891426 13.773596764 12.070218086
269 1 0.0 12.839793205 16.575006485 20.590373993
270 1 0.0 12.839793205 16.575006485 17.750322342
271 1 0.0 12.839793205 16.575006485 14.910269737
272 1 0.0 12.839793205 16.575006485 12.070218086
273 1 0.0 13.306695938 2.101057291 20.590373993
274 1 0.0 13.306695938 2.101057291 17.750322342
275 1 0.0 13.306695938 2.101057291 14.910269737
276 1 0.0 13.306695938 2.101057291 12.070218086
277 1 0.0 13.773596764 4.902466774 20.590373993
278 1 0.0 13.773596764 4.902466774 17.750322342
279 1 0.0 13.773596764 4.902466774 14.910269737
280 1 0.0 13.773596764 4.902466774 12.070218086
281 1 0.0 14.240498543 7.703876495 20.590373993
282 1 0.0 14.240498543 7.703876495 17.750322342
283 1 0.0 14.240498543 7.703876495 14.910269737
284 1 0.0 14.240498543 7.703876495 12.070218086
285 1 0.0 14.707400322 10.505285263 20.590373993
286 1 0.0 14.707400322 10.505285263 17.750322342
287 1 0.0 14.707400322 10.505285263 14.910269737
288 1 0.0 14.707400322 10.505285263 12.070218086
289 1 0.0 15.174302101 13.306695938 20.590373993
290 1 0.0 15.174302101 13.306695938 17.750322342
291 1 0.0 15.174302101 13.306695938 14.910269737
292 1 0.0 15.174302101 13.306695938 12.070218086
293 1 0.0 15.641202927 16.108106613 20.590373993
294 1 0.0 15.641202927 16.108106613 17.750322342
295 1 0.0 15.641202927 16.108106613 14.910269737
296 1 0.0 15.641202927 16.108106613 12.070218086
297 2 0.0 0.001756968 0.001756968 0.710012853
298 2 0.0 0.001756968 0.001756968 3.550064325
299 2 0.0 0.001756968 0.001756968 6.390115738
300 2 0.0 0.001756968 0.001756968 9.230166435
301 2 0.0 0.001756968 2.959333658 0.710012853
302 2 0.0 0.001756968 2.959333658 3.550064325
303 2 0.0 0.001756968 2.959333658 6.390115738
304 2 0.0 0.001756968 2.959333658 9.230166435
305 2 0.0 0.001756968 5.799384594 0.710012853
306 2 0.0 0.001756968 5.799384594 3.550064325
307 2 0.0 0.001756968 5.799384594 6.390115738
308 2 0.0 0.001756968 5.799384594 9.230166435
309 2 0.0 0.001756968 8.639435768 0.710012853
310 2 0.0 0.001756968 8.639435768 3.550064325
311 2 0.0 0.001756968 8.639435768 6.390115738
312 2 0.0 0.001756968 8.639435768 9.230166435
313 2 0.0 0.001756968 11.479487419 0.710012853
314 2 0.0 0.001756968 11.479487419 3.550064325
315 2 0.0 0.001756968 11.479487419 6.390115738
316 2 0.0 0.001756968 11.479487419 9.230166435
317 2 0.0 0.001756968 14.31953907 0.710012853
318 2 0.0 0.001756968 14.31953907 3.550064325
319 2 0.0 0.001756968 14.31953907 6.390115738
320 2 0.0 0.001756968 14.31953907 9.230166435
321 2 0.0 2.959333658 0.001756968 0.710012853
322 2 0.0 2.959333658 0.001756968 3.550064325
323 2 0.0 2.959333658 0.001756968 6.390115738
324 2 0.0 2.959333658 0.001756968 9.230166435
325 2 0.0 2.959333658 2.959333658 0.710012853
326 2 0.0 2.959333658 2.959333658 3.550064325
327 2 0.0 2.959333658 2.959333658 6.390115738
328 2 0.0 2.959333658 2.959333658 9.230166435
329 2 0.0 2.959333658 5.799384594 0.710012853
330 2 0.0 2.959333658 5.799384594 3.550064325
331 2 0.0 2.959333658 5.799384594 6.390115738
332 2 0.0 2.959333658 5.799384594 9.230166435
333 2 0.0 2.959333658 8.639435768 0.710012853
334 2 0.0 2.959333658 8.639435768 3.550064325
335 2 0.0 2.959333658 8.639435768 6.390115738
336 2 0.0 2.959333658 8.639435768 9.230166435
337 2 0.0 2.959333658 11.479487419 0.710012853
338 2 0.0 2.959333658 11.479487419 3.550064325
339 2 0.0 2.959333658 11.479487419 6.390115738
340 2 0.0 2.959333658 11.479487419 9.230166435
341 2 0.0 2.959333658 14.31953907 0.710012853
342 2 0.0 2.959333658 14.31953907 3.550064325
343 2 0.0 2.959333658 14.31953907 6.390115738
344 2 0.0 2.959333658 14.31953907 9.230166435
345 2 0.0 5.799384594 0.001756968 0.710012853
346 2 0.0 5.799384594 0.001756968 3.550064325
347 2 0.0 5.799384594 0.001756968 6.390115738
348 2 0.0 5.799384594 0.001756968 9.230166435
349 2 0.0 5.799384594 2.959333658 0.710012853
350 2 0.0 5.799384594 2.959333658 3.550064325
351 2 0.0 5.799384594 2.959333658 6.390115738
352 2 0.0 5.799384594 2.959333658 9.230166435
353 2 0.0 5.799384594 5.799384594 0.710012853
354 2 0.0 5.799384594 5.799384594 3.550064325
355 2 0.0 5.799384594 5.799384594 6.390115738
356 2 0.0 5.799384594 5.799384594 9.230166435
357 2 0.0 5.799384594 8.639435768 0.710012853
358 2 0.0 5.799384594 8.639435768 3.550064325
359 2 0.0 5.799384594 8.639435768 6.390115738
360 2 0.0 5.799384594 8.639435768 9.230166435
361 2 0.0 5.799384594 11.479487419 0.710012853
362 2 0.0 5.799384594 11.479487419 3.550064325
363 2 0.0 5.799384594 11.479487419 6.390115738
364 2 0.0 5.799384594 11.479487419 9.230166435
365 2 0.0 5.799384594 14.31953907 0.710012853
366 2 0.0 5.799384594 14.31953907 3.550064325
367 2 0.0 5.799384594 14.31953907 6.390115738
368 2 0.0 5.799384594 14.31953907 9.230166435
369 2 0.0 8.639435768 0.001756968 0.710012853
370 2 0.0 8.639435768 0.001756968 3.550064325
371 2 0.0 8.639435768 0.001756968 6.390115738
372 2 0.0 8.639435768 0.001756968 9.230166435
373 2 0.0 8.639435768 2.959333658 0.710012853
374 2 0.0 8.639435768 2.959333658 3.550064325
375 2 0.0 8.639435768 2.959333658 6.390115738
376 2 0.0 8.639435768 2.959333658 9.230166435
377 2 0.0 8.639435768 5.799384594 0.710012853
378 2 0.0 8.639435768 5.799384594 3.550064325
379 2 0.0 8.639435768 5.799384594 6.390115738
380 2 0.0 8.639435768 5.799384594 9.230166435
381 2 0.0 8.639435768 8.639435768 0.710012853
382 2 0.0 8.639435768 8.639435768 3.550064325
383 2 0.0 8.639435768 8.639435768 6.390115738
384 2 0.0 8.639435768 8.639435768 9.230166435
385 2 0.0 8.639435768 11.479487419 0.710012853
386 2 0.0 8.639435768 11.479487419 3.550064325
387 2 0.0 8.639435768 11.479487419 6.390115738
388 2 0.0 8.639435768 11.479487419 9.230166435
389 2 0.0 8.639435768 14.31953907 0.710012853
390 2 0.0 8.639435768 14.31953907 3.550064325
391 2 0.0 8.639435768 14.31953907 6.390115738
392 2 0.0 8.639435768 14.31953907 9.230166435
393 2 0.0 11.479487419 0.001756968 0.710012853
394 2 0.0 11.479487419 0.001756968 3.550064325
395 2 0.0 11.479487419 0.001756968 6.390115738
396 2 0.0 11.479487419 0.001756968 9.230166435
397 2 0.0 11.479487419 2.959333658 0.710012853
398 2 0.0 11.479487419 2.959333658 3.550064325
399 2 0.0 11.479487419 2.959333658 6.390115738
400 2 0.0 11.479487419 2.959333658 9.230166435
401 2 0.0 11.479487419 5.799384594 0.710012853
402 2 0.0 11.479487419 5.799384594 3.550064325
403 2 0.0 11.479487419 5.799384594 6.390115738
404 2 0.0 11.479487419 5.799384594 9.230166435
405 2 0.0 11.479487419 8.639435768 0.710012853
406 2 0.0 11.479487419 8.639435768 3.550064325
407 2 0.0 11.479487419 8.639435768 6.390115738
408 2 0.0 11.479487419 8.639435768 9.230166435
409 2 0.0 11.479487419 11.479487419 0.710012853
410 2 0.0 11.479487419 11.479487419 3.550064325
411 2 0.0 11.479487419 11.479487419 6.390115738
412 2 0.0 11.479487419 11.479487419 9.230166435
413 2 0.0 11.479487419 14.31953907 0.710012853
414 2 0.0 11.479487419 14.31953907 3.550064325
415 2 0.0 11.479487419 14.31953907 6.390115738
416 2 0.0 11.479487419 14.31953907 9.230166435
417 2 0.0 14.31953907 0.001756968 0.710012853
418 2 0.0 14.31953907 0.001756968 3.550064325
419 2 0.0 14.31953907 0.001756968 6.390115738
420 2 0.0 14.31953907 0.001756968 9.230166435
421 2 0.0 14.31953907 2.959333658 0.710012853
422 2 0.0 14.31953907 2.959333658 3.550064325
423 2 0.0 14.31953907 2.959333658 6.390115738
424 2 0.0 14.31953907 2.959333658 9.230166435
425 2 0.0 14.31953907 5.799384594 0.710012853
426 2 0.0 14.31953907 5.799384594 3.550064325
427 2 0.0 14.31953907 5.799384594 6.390115738
428 2 0.0 14.31953907 5.799384594 9.230166435
429 2 0.0 14.31953907 8.639435768 0.710012853
430 2 0.0 14.31953907 8.639435768 3.550064325
431 2 0.0 14.31953907 8.639435768 6.390115738
432 2 0.0 14.31953907 8.639435768 9.230166435
433 2 0.0 14.31953907 11.479487419 0.710012853
434 2 0.0 14.31953907 11.479487419 3.550064325
435 2 0.0 14.31953907 11.479487419 6.390115738
436 2 0.0 14.31953907 11.479487419 9.230166435
437 2 0.0 14.31953907 14.31953907 0.710012853
438 2 0.0 14.31953907 14.31953907 3.550064325
439 2 0.0 14.31953907 14.31953907 6.390115738
440 2 0.0 14.31953907 14.31953907 9.230166435
441 2 0.0 1.539307833 1.539307833 2.1300385
442 2 0.0 1.539307833 1.539307833 4.970089912
443 2 0.0 1.539307833 1.539307833 7.810141563
444 2 0.0 1.539307833 1.539307833 10.650194168
445 2 0.0 1.539307833 4.379359245 2.1300385
446 2 0.0 1.539307833 4.379359245 4.970089912
447 2 0.0 1.539307833 4.379359245 7.810141563
448 2 0.0 1.539307833 4.379359245 10.650194168
449 2 0.0 1.539307833 7.219411373 2.1300385
450 2 0.0 1.539307833 7.219411373 4.970089912
451 2 0.0 1.539307833 7.219411373 7.810141563
452 2 0.0 1.539307833 7.219411373 10.650194168
453 2 0.0 1.539307833 10.059461594 2.1300385
454 2 0.0 1.539307833 10.059461594 4.970089912
455 2 0.0 1.539307833 10.059461594 7.810141563
456 2 0.0 1.539307833 10.059461594 10.650194168
457 2 0.0 1.539307833 12.899513245 2.1300385
458 2 0.0 1.539307833 12.899513245 4.970089912
459 2 0.0 1.539307833 12.899513245 7.810141563
460 2 0.0 1.539307833 12.899513245 10.650194168
461 2 0.0 1.539307833 15.739563942 2.1300385
462 2 0.0 1.539307833 15.739563942 4.970089912
463 2 0.0 1.539307833 15.739563942 7.810141563
464 2 0.0 1.539307833 15.739563942 10.650194168
465 2 0.0 4.379359245 1.539307833 2.1300385
466 2 0.0 4.379359245 1.539307833 4.970089912
467 2 0.0 4.379359245 1.539307833 7.810141563
468 2 0.0 4.379359245 1.539307833 10.650194168
469 2 0.0 4.379359245 4.379359245 2.1300385
470 2 0.0 4.379359245 4.379359245 4.970089912
471 2 0.0 4.379359245 4.379359245 7.810141563
472 2 0.0 4.379359245 4.379359245 10.650194168
473 2 0.0 4.379359245 7.219411373 2.1300385
474 2 0.0 4.379359245 7.219411373 4.970089912
475 2 0.0 4.379359245 7.219411373 7.810141563
476 2 0.0 4.379359245 7.219411373 10.650194168
477 2 0.0 4.379359245 10.059461594 2.1300385
478 2 0.0 4.379359245 10.059461594 4.970089912
479 2 0.0 4.379359245 10.059461594 7.810141563
480 2 0.0 4.379359245 10.059461594 10.650194168
481 2 0.0 4.379359245 12.899513245 2.1300385
482 2 0.0 4.379359245 12.899513245 4.970089912
483 2 0.0 4.379359245 12.899513245 7.810141563
484 2 0.0 4.379359245 12.899513245 10.650194168
485 2 0.0 4.379359245 15.739563942 2.1300385
486 2 0.0 4.379359245 15.739563942 4.970089912
487 2 0.0 4.379359245 15.739563942 7.810141563
488 2 0.0 4.379359245 15.739563942 10.650194168
489 2 0.0 7.219411373 1.539307833 2.1300385
490 2 0.0 7.219411373 1.539307833 4.970089912
491 2 0.0 7.219411373 1.539307833 7.810141563
492 2 0.0 7.219411373 1.539307833 10.650194168
493 2 0.0 7.219411373 4.379359245 2.1300385
494 2 0.0 7.219411373 4.379359245 4.970089912
495 2 0.0 7.219411373 4.379359245 7.810141563
496 2 0.0 7.219411373 4.379359245 10.650194168
497 2 0.0 7.219411373 7.219411373 2.1300385
498 2 0.0 7.219411373 7.219411373 4.970089912
499 2 0.0 7.219411373 7.219411373 7.810141563
500 2 0.0 7.219411373 7.219411373 10.650194168
501 2 0.0 7.219411373 10.059461594 2.1300385
502 2 0.0 7.219411373 10.059461594 4.970089912
503 2 0.0 7.219411373 10.059461594 7.810141563
504 2 0.0 7.219411373 10.059461594 10.650194168
505 2 0.0 7.219411373 12.899513245 2.1300385
506 2 0.0 7.219411373 12.899513245 4.970089912
507 2 0.0 7.219411373 12.899513245 7.810141563
508 2 0.0 7.219411373 12.899513245 10.650194168
509 2 0.0 7.219411373 15.739563942 2.1300385
510 2 0.0 7.219411373 15.739563942 4.970089912
511 2 0.0 7.219411373 15.739563942 7.810141563
512 2 0.0 7.219411373 15.739563942 10.650194168
513 2 0.0 10.059461594 1.539307833 2.1300385
514 2 0.0 10.059461594 1.539307833 4.970089912
515 2 0.0 10.059461594 1.539307833 7.810141563
516 2 0.0 10.059461594 1.539307833 10.650194168
517 2 0.0 10.059461594 4.379359245 2.1300385
518 2 0.0 10.059461594 4.379359245 4.970089912
519 2 0.0 10.059461594 4.379359245 7.810141563
520 2 0.0 10.059461594 4.379359245 10.650194168
521 2 0.0 10.059461594 7.219411373 2.1300385
522 2 0.0 10.059461594 7.219411373 4.970089912
523 2 0.0 10.059461594 7.219411373 7.810141563
524 2 0.0 10.059461594 7.219411373 10.650194168
525 2 0.0 10.059461594 10.059461594 2.1300385
526 2 0.0 10.059461594 10.059461594 4.970089912
527 2 0.0 10.059461594 10.059461594 7.810141563
528 2 0.0 10.059461594 10.059461594 10.650194168
529 2 0.0 10.059461594 12.899513245 2.1300385
530 2 0.0 10.059461594 12.899513245 4.970089912
531 2 0.0 10.059461594 12.899513245 7.810141563
532 2 0.0 10.059461594 12.899513245 10.650194168
533 2 0.0 10.059461594 15.739563942 2.1300385
534 2 0.0 10.059461594 15.739563942 4.970089912
535 2 0.0 10.059461594 15.739563942 7.810141563
536 2 0.0 10.059461594 15.739563942 10.650194168
537 2 0.0 12.899513245 1.539307833 2.1300385
538 2 0.0 12.899513245 1.539307833 4.970089912
539 2 0.0 12.899513245 1.539307833 7.810141563
540 2 0.0 12.899513245 1.539307833 10.650194168
541 2 0.0 12.899513245 4.379359245 2.1300385
542 2 0.0 12.899513245 4.379359245 4.970089912
543 2 0.0 12.899513245 4.379359245 7.810141563
544 2 0.0 12.899513245 4.379359245 10.650194168
545 2 0.0 12.899513245 7.219411373 2.1300385
546 2 0.0 12.899513245 7.219411373 4.970089912
547 2 0.0 12.899513245 7.219411373 7.810141563
548 2 0.0 12.899513245 7.219411373 10.650194168
549 2 0.0 12.899513245 10.059461594 2.1300385
550 2 0.0 12.899513245 10.059461594 4.970089912
551 2 0.0 12.899513245 10.059461594 7.810141563
552 2 0.0 12.899513245 10.059461594 10.650194168
553 2 0.0 12.899513245 12.899513245 2.1300385
554 2 0.0 12.899513245 12.899513245 4.970089912
555 2 0.0 12.899513245 12.899513245 7.810141563
556 2 0.0 12.899513245 12.899513245 10.650194168
557 2 0.0 12.899513245 15.739563942 2.1300385
558 2 0.0 12.899513245 15.739563942 4.970089912
559 2 0.0 12.899513245 15.739563942 7.810141563
560 2 0.0 12.899513245 15.739563942 10.650194168
561 2 0.0 15.739563942 1.539307833 2.1300385
562 2 0.0 15.739563942 1.539307833 4.970089912
563 2 0.0 15.739563942 1.539307833 7.810141563
564 2 0.0 15.739563942 1.539307833 10.650194168
565 2 0.0 15.739563942 4.379359245 2.1300385
566 2 0.0 15.739563942 4.379359245 4.970089912
567 2 0.0 15.739563942 4.379359245 7.810141563
568 2 0.0 15.739563942 4.379359245 10.650194168
569 2 0.0 15.739563942 7.219411373 2.1300385
570 2 0.0 15.739563942 7.219411373 4.970089912
571 2 0.0 15.739563942 7.219411373 7.810141563
572 2 0.0 15.739563942 7.219411373 10.650194168
573 2 0.0 15.739563942 10.059461594 2.1300385
574 2 0.0 15.739563942 10.059461594 4.970089912
575 2 0.0 15.739563942 10.059461594 7.810141563
576 2 0.0 15.739563942 10.059461594 10.650194168
577 2 0.0 15.739563942 12.899513245 2.1300385
578 2 0.0 15.739563942 12.899513245 4.970089912
579 2 0.0 15.739563942 12.899513245 7.810141563
580 2 0.0 15.739563942 12.899513245 10.650194168
581 2 0.0 15.739563942 15.739563942 2.1300385
582 2 0.0 15.739563942 15.739563942 4.970089912
583 2 0.0 15.739563942 15.739563942 7.810141563
584 2 0.0 15.739563942 15.739563942 10.650194168
