#Input file for lammps
 
3550 atoms
3 atom types
 
0.0 164 xlo xhi
0.0 164 ylo yhi
0.0 164 zlo zhi
 
Masses
 
1 1.008
2 12
3 14
 
Atoms
 
      1 1 0       68.407      81.3696      60.6467
      2 2 0      68.6021      81.9175       61.573
      3 1 0      67.6649      81.8767      62.1374
      4 2 0       69.761        81.19      62.3958
      5 1 0      69.5165      80.1441      62.5735
      6 1 0      70.6866      81.1572      61.8327
      7 2 0      69.9634      81.9197      63.7267
      8 1 0        69.04      81.9108      64.3107
      9 2 0      71.0988      81.1771      64.5076
     10 1 0      70.8462      80.1328      64.6768
     11 1 0      72.0184      81.1505      63.9312
     12 2 0      71.3124      81.9288      65.8624
     13 1 0        70.39      81.9234      66.4507
     14 2 0      72.4466      81.1755      66.6301
     15 1 0      72.1897       80.131      66.7949
     16 1 0      73.3641      81.1478      66.0498
     17 2 0      72.6602      81.9276      67.9847
     18 1 0      71.7365      81.9228      68.5721
     19 2 0      73.7953      81.1715       68.748
     20 1 0      73.5361      80.1273      68.9137
     21 1 0      74.7119      81.1433      68.1677
     22 2 0      74.0063      81.9223      70.1017
     23 1 0       73.081      81.9208      70.6835
     24 2 0      75.1391       81.163      70.8729
     25 1 0      74.8874      80.1227      71.0414
     26 1 0       76.058      81.1372      70.2964
     27 2 0      74.4245      83.3058      69.8837
     28 3 0      74.7584      84.4094      69.7101
     29 2 0      73.0552      83.3145      67.7274
     30 3 0      73.3686      84.4141      67.5232
     31 2 0      71.7108      83.3151      65.6116
     32 3 0      72.0272      84.4158      65.4127
     33 2 0      70.3719      83.3156      63.4975
     34 3 0      70.6934      84.4147      63.3171
     35 2 0      68.9991      83.3402      61.2762
     36 3 0      69.3033      84.4311      61.0487
     37 2 0       75.339      81.9384      72.2189
     38 1 0      74.4204       81.936      72.8122
     39 2 0      76.4775      81.1892      72.9846
     40 1 0      76.2212      80.1429      73.1486
     41 1 0      77.3941       81.159      72.4047
     42 2 0      76.6857      81.9371      74.3397
     43 1 0      75.7634      81.9277      74.9263
     44 2 0      77.8217      81.1791      75.1026
     45 1 0      77.5653      80.1342      75.2661
     46 1 0      78.7385      81.1521      74.5212
     47 2 0      78.0346      81.9315      76.4568
     48 1 0      77.1112      81.9256      77.0435
     49 2 0      79.1691      81.1757      77.2215
     50 1 0      78.9108      80.1314      77.3849
     51 1 0      80.0856      81.1485      76.6396
     52 2 0      79.3807      81.9295      78.5756
     53 1 0       78.457      81.9241      79.1618
     54 2 0      80.5166      81.1725      79.3386
     55 1 0      80.2565      80.1281       79.503
     56 1 0      81.4326      81.1444      78.7569
     57 2 0      80.7272      81.9235      80.6914
     58 1 0      79.8008      81.9222      81.2732
     59 2 0        81.86      81.1636      81.4626
     60 1 0      81.6078      80.1244      81.6308
     61 1 0      82.7783      81.1386      80.8857
     62 2 0       81.145      83.3071      80.4728
     63 3 0      81.4784      84.4107      80.2988
     64 2 0      79.7761      83.3159      78.3177
     65 3 0      80.0895      84.4154      78.1132
     66 2 0      78.4316      83.3177      76.2024
     67 3 0      78.7467      84.4182      76.0004
     68 2 0      77.0948      83.3239      74.1035
     69 3 0      77.4191      84.4232      73.9166
     70 2 0      75.7036      83.3156      71.8846
     71 3 0       75.989      84.4122      71.6108
     72 2 0      82.0591      81.9397      82.8079
     73 1 0      81.1407      81.9372      83.4018
     74 2 0      83.1978      81.1907      83.5743
     75 1 0      82.9416      80.1441      83.7381
     76 1 0      84.1145      81.1602      82.9943
     77 2 0      83.4062      81.9384       84.929
     78 1 0      82.4836       81.929      85.5158
     79 2 0      84.5424      81.1804      85.6928
     80 1 0      84.2856      80.1353      85.8555
     81 1 0      85.4588      81.1534      85.1106
     82 2 0      84.7548      81.9326      87.0464
     83 1 0      83.8318      81.9268       87.633
     84 2 0      85.8893       81.177      87.8106
     85 1 0      85.6312      80.1325      87.9745
     86 1 0       86.806      81.1497      87.2292
     87 2 0      86.1009       81.931       89.165
     88 1 0      85.1776      81.9254      89.7513
     89 2 0      87.2372      81.1737      89.9284
     90 1 0      86.9769      80.1295      90.0926
     91 1 0      88.1529      81.1457      89.3465
     92 2 0      87.4477      81.9245      91.2806
     93 1 0       86.521      81.9235       91.863
     94 2 0      88.5803      81.1646      92.0519
     95 1 0      88.3282      80.1256      92.2202
     96 1 0      89.4987      81.1398      91.4752
     97 2 0      87.8653      83.3085      91.0621
     98 3 0      88.1987      84.4122      90.8882
     99 2 0      86.4961      83.3172      88.9069
    100 3 0      86.8096      84.4167      88.7022
    101 2 0      85.1519      83.3191       86.792
    102 3 0       85.467      84.4195      86.5899
    103 2 0      83.8155      83.3251      84.6935
    104 3 0        84.14      84.4245       84.507
    105 2 0      82.4244      83.3169      82.4745
    106 3 0      82.7099      84.4134       82.201
    107 2 0      88.7799      81.9408      93.3972
    108 1 0      87.8607      81.9385      93.9916
    109 2 0      89.9181      81.1915      94.1634
    110 1 0       89.662      80.1454      94.3275
    111 1 0      90.8348      81.1613      93.5837
    112 2 0      90.1271      81.9392      95.5182
    113 1 0      89.2035      81.9302      96.1055
    114 2 0      91.2625      81.1814      96.2816
    115 1 0       91.006      80.1367      96.4448
    116 1 0      92.1792      81.1546      95.6999
    117 2 0      91.4752      81.9341      97.6358
    118 1 0       90.552       81.928      98.2222
    119 2 0      92.6101      81.1781      98.4008
    120 1 0      92.3514      80.1337      98.5637
    121 1 0      93.5263      81.1508      97.8183
    122 2 0      92.8217      81.9317      99.7544
    123 1 0      91.8976      81.9265      100.341
    124 2 0      93.9573      81.1748      100.517
    125 1 0      93.6972      80.1305      100.682
    126 1 0      94.8733      81.1468      99.9357
    127 2 0      94.1677      81.9257      101.871
    128 1 0       93.242      81.9244      102.452
    129 2 0         95.3      81.1669      102.641
    130 1 0      95.0486      80.1262       102.81
    131 1 0      96.2193      81.1408      102.065
    132 2 0      94.5856      83.3095      101.652
    133 3 0      94.9195      84.4131      101.478
    134 2 0       93.217      83.3184      99.4966
    135 3 0      93.5304      84.4179      99.2921
    136 2 0      91.8725      83.3201      97.3816
    137 3 0      92.1879      84.4206      97.1798
    138 2 0      90.5356      83.3263      95.2823
    139 3 0      90.8596      84.4257      95.0953
    140 2 0      89.1446       83.318      93.0635
    141 3 0      89.4305      84.4147      92.7906
    142 1 0      95.4386      81.6672      103.599
    143 1 0       30.875      84.1421      114.249
    144 2 0      30.1569      84.9659      114.295
    145 1 0      30.1599       85.296      115.339
    146 2 0      30.6421      86.1574       113.35
    147 1 0      31.6532       86.471      113.604
    148 1 0       30.712      85.8399      112.316
    149 2 0      29.6722       87.334       113.49
    150 1 0      29.6394      87.6799      114.526
    151 2 0      30.1816      88.4831      112.557
    152 1 0      31.1931      88.7863      112.817
    153 1 0       30.248      88.1503      111.525
    154 2 0      29.1849      89.6807      112.692
    155 1 0      29.1478      90.0304      113.728
    156 2 0      29.7072       90.819      111.757
    157 1 0        30.72       91.117       112.02
    158 1 0      29.7756      90.4822      110.727
    159 2 0      28.7102      92.0164      111.892
    160 1 0      28.6728      92.3648      112.929
    161 2 0      29.2359      93.1512      110.955
    162 1 0      30.2485      93.4496      111.221
    163 1 0      29.3049      92.8144      109.925
    164 2 0      28.2406      94.3475      111.092
    165 1 0       28.201      94.6895       112.13
    166 2 0      28.7683      95.4899      110.159
    167 1 0      29.7759      95.7919      110.418
    168 1 0       28.834      95.1566      109.129
    169 2 0      26.8936      93.9709      110.668
    170 3 0       25.819      93.6708      110.329
    171 2 0      27.3685      91.5963      111.481
    172 3 0      26.3048      91.2631      111.155
    173 2 0      27.8424      89.2677      112.279
    174 3 0      26.7765        88.94      111.951
    175 2 0      28.3157      86.9421      113.072
    176 3 0      27.2476      86.6335      112.744
    177 2 0       28.787      84.5017      113.874
    178 3 0      27.7366      84.1458       113.55
    179 2 0      27.7508      96.6715      110.306
    180 1 0      27.7097      97.0262       111.34
    181 2 0      28.2692       97.808      109.366
    182 1 0       29.284      98.1058      109.629
    183 1 0        28.34      97.4719      108.337
    184 2 0      27.2766      99.0055      109.507
    185 1 0      27.2438      99.3543      110.542
    186 2 0      27.8042       100.14      108.569
    187 1 0      28.8177      100.437      108.831
    188 1 0      27.8722      99.8023      107.539
    189 2 0      26.8071      101.337      108.705
    190 1 0      26.7708      101.685      109.741
    191 2 0      27.3323      102.473      107.768
    192 1 0      28.3454       102.77      108.033
    193 1 0      27.4007      102.135      106.739
    194 2 0      26.3339      103.669      107.905
    195 1 0      26.2973      104.017      108.942
    196 2 0      26.8606      104.804      106.967
    197 1 0      27.8736      105.101      107.234
    198 1 0      26.9298      104.466      105.938
    199 2 0      25.8652          106      107.105
    200 1 0      25.8256      106.341      108.143
    201 2 0      26.3934      107.142      106.172
    202 1 0      27.4002      107.443      106.431
    203 1 0      26.4585      106.808      105.142
    204 2 0      24.5182      105.622      106.681
    205 3 0      23.4437      105.322      106.342
    206 2 0      24.9928      103.249      107.494
    207 3 0      23.9292      102.915      107.167
    208 2 0      25.4654      100.921      108.292
    209 3 0      24.4003       100.59      107.965
    210 2 0      25.9302      98.6088      109.087
    211 3 0      24.8629      98.2947      108.754
    212 2 0      26.4347      96.1727      109.906
    213 3 0      25.3884      95.7673       109.59
    214 2 0      25.3755      108.323       106.32
    215 1 0      25.3343      108.678      107.353
    216 2 0      25.8935       109.46       105.38
    217 1 0      26.9086      109.758      105.642
    218 1 0      25.9647      109.124       104.35
    219 2 0      24.9012      110.657       105.52
    220 1 0      24.8684      111.006      106.556
    221 2 0      25.4287      111.793      104.582
    222 1 0      26.4424      112.089      104.844
    223 1 0      25.4968      111.454      103.552
    224 2 0      24.4318      112.989      104.718
    225 1 0      24.3955      113.337      105.754
    226 2 0       24.957      114.125      103.781
    227 1 0        25.97      114.422      104.046
    228 1 0      25.0252      113.786      102.752
    229 2 0      23.9583      115.321      103.919
    230 1 0      23.9219      115.669      104.955
    231 2 0      24.4851      116.456       102.98
    232 1 0      25.4981      116.753      103.247
    233 1 0      24.5543      116.118      101.951
    234 2 0        23.49      117.651      103.118
    235 1 0      23.4501      117.993      104.157
    236 2 0      24.0182      118.794      102.185
    237 1 0      25.0247      119.095      102.445
    238 1 0      24.0832       118.46      101.155
    239 2 0      22.1427      117.274      102.694
    240 3 0      21.0681      116.973      102.356
    241 2 0      22.6174        114.9      103.507
    242 3 0      21.5539      114.567       103.18
    243 2 0      23.0899      112.572      104.305
    244 3 0      22.0249      112.241      103.978
    245 2 0      23.5547      110.261        105.1
    246 3 0      22.4873      109.947      104.767
    247 2 0      24.0592      107.825      105.919
    248 3 0      23.0129       107.42      105.603
    249 2 0      23.0002      119.974      102.332
    250 1 0      22.9589       120.33      103.367
    251 2 0      23.5186      121.111      101.393
    252 1 0      24.5331      121.409      101.655
    253 1 0      23.5895      120.775      100.363
    254 2 0      22.5262      122.309      101.532
    255 1 0       22.493      122.658      102.569
    256 2 0      23.0536      123.444      100.595
    257 1 0      24.0669      123.741      100.857
    258 1 0      23.1215      123.106       99.565
    259 2 0      22.0562      124.641      100.731
    260 1 0      22.0202      124.988      101.767
    261 2 0      22.5815      125.777      99.7941
    262 1 0      23.5948      126.073      100.059
    263 1 0        22.65      125.438      98.7647
    264 2 0      21.5834      126.973      99.9313
    265 1 0      21.5466       127.32      100.968
    266 2 0        22.11      128.107      98.9933
    267 1 0      23.1229      128.405      99.2597
    268 1 0       22.179      127.769      97.9643
    269 2 0      21.1147      129.303      99.1315
    270 1 0      21.0751      129.645      100.169
    271 2 0      21.6419      130.445      98.1984
    272 1 0        22.65      130.747      98.4575
    273 1 0       21.708      130.112      97.1676
    274 2 0      19.7675      128.925      98.7071
    275 3 0      18.6928      128.626      98.3684
    276 2 0       20.242      126.552      99.5196
    277 3 0      19.1784      126.219      99.1933
    278 2 0      20.7146      124.224      100.318
    279 3 0      19.6495      123.894      99.9905
    280 2 0      21.1796      121.912      101.113
    281 3 0      20.1122      121.598      100.781
    282 2 0       21.684      119.476      101.932
    283 3 0      20.6374      119.072      101.616
    284 1 0      20.9686      131.295      98.3056
    285 1 0      65.6974      59.9157      147.198
    286 2 0      65.4905      60.9696      146.991
    287 1 0      65.7074       61.497      147.926
    288 2 0      66.4614      61.4931      145.837
    289 1 0      67.5045      61.3154      146.093
    290 1 0      66.3143      60.9426      144.915
    291 2 0      66.2177      62.9889      145.618
    292 1 0      66.4111      63.5453      146.539
    293 2 0      67.1888      63.4681      144.488
    294 1 0      68.2274       63.283      144.752
    295 1 0      67.0313      62.9072      143.572
    296 2 0      66.9323      64.9936      144.258
    297 1 0      67.1239      65.5553      145.177
    298 2 0      67.9091      65.4568      143.129
    299 1 0      68.9463      65.2675      143.398
    300 1 0      67.7513      64.8919      142.215
    301 2 0      67.6521      66.9824      142.898
    302 1 0      67.8428      67.5433      143.819
    303 2 0      68.6301      67.4405      141.768
    304 1 0      69.6674      67.2522       142.04
    305 1 0      68.4728      66.8754      140.855
    306 2 0      68.3741      68.9648      141.541
    307 1 0      68.5598      69.5216      142.463
    308 2 0      69.3577      69.4293      140.413
    309 1 0      70.3923      69.2448      140.677
    310 1 0      69.1994      68.8684      139.498
    311 2 0       67.001       69.215      141.107
    312 3 0      65.9058       69.415       140.76
    313 2 0      66.2626       67.197      142.488
    314 3 0      65.1608      67.3669      142.162
    315 2 0      65.5454      65.2141      143.844
    316 3 0      64.4444      65.3894      143.515
    317 2 0      64.8291      63.2328      145.194
    318 3 0      63.7357       63.425       144.86
    319 2 0       64.054      61.1588      146.578
    320 3 0      62.9525       61.304      146.262
    321 2 0      69.0758      70.9545      140.197
    322 1 0      69.2662      71.5218      141.112
    323 2 0       70.048      71.4172      139.063
    324 1 0      71.0869      71.2265      139.332
    325 1 0      69.8928      70.8518       138.15
    326 2 0      69.7952      72.9418      138.838
    327 1 0      69.9901      73.5005      139.758
    328 2 0      70.7748      73.3989      137.708
    329 1 0      71.8121      73.2082      137.976
    330 1 0       70.616      72.8331      136.794
    331 2 0      70.5176      74.9242      137.478
    332 1 0       70.709      75.4841      138.398
    333 2 0      71.4957      75.3837      136.349
    334 1 0      72.5323      75.1931      136.619
    335 1 0      71.3369      74.8173      135.436
    336 2 0       71.237      76.9093      136.121
    337 1 0      71.4278      77.4689      137.041
    338 2 0      72.2157      77.3668       134.99
    339 1 0      73.2527      77.1772      135.262
    340 1 0      72.0578      76.8003      134.078
    341 2 0      71.9592      78.8903      134.763
    342 1 0      72.1447      79.4471      135.686
    343 2 0      72.9433      79.3546      133.635
    344 1 0      73.9768      79.1702      133.899
    345 1 0      72.7842      78.7937       132.72
    346 2 0      70.5858      79.1401      134.329
    347 3 0      69.4904      79.3396      133.983
    348 2 0      69.8476      77.1231       135.71
    349 3 0      68.7458      77.2927      135.384
    350 2 0      69.1296      75.1412      137.065
    351 3 0      68.0277      75.3135      136.738
    352 2 0      68.4129      73.1761      138.414
    353 3 0      67.3172      73.3622      138.077
    354 2 0      67.6695      71.0935      139.817
    355 3 0      66.5471      71.1971      139.519
    356 2 0      72.6606      80.8795      133.419
    357 1 0      72.8512      81.4473      134.334
    358 2 0      73.6328      81.3428      132.286
    359 1 0      74.6718      81.1519      132.554
    360 1 0      73.4778      80.7771      131.373
    361 2 0      73.3801       82.867      132.061
    362 1 0       73.575      83.4258       132.98
    363 2 0        74.36      83.3249       130.93
    364 1 0      75.3971      83.1335      131.199
    365 1 0      74.2009      82.7584      130.017
    366 2 0      74.1027      84.8496      130.701
    367 1 0       74.294      85.4094       131.62
    368 2 0      75.0804      85.3087      129.571
    369 1 0      76.1174      85.1186      129.841
    370 1 0      74.9219      84.7428      128.658
    371 2 0      74.8216      86.8347      129.343
    372 1 0      75.0127      87.3943      130.263
    373 2 0      75.8008      87.2925      128.212
    374 1 0      76.8375      87.1027      128.484
    375 1 0      75.6428      86.7258        127.3
    376 2 0      75.5442      88.8153      127.985
    377 1 0      75.7297      89.3728      128.908
    378 2 0      76.5284      89.2797      126.858
    379 1 0      77.5617      89.0955      127.122
    380 1 0      76.3692       88.719      125.943
    381 2 0      74.1705      89.0652      127.552
    382 3 0      73.0751      89.2649      127.206
    383 2 0      73.4324      87.0483      128.932
    384 3 0      72.3305      87.2176      128.606
    385 2 0      72.7144      85.0667      130.288
    386 3 0      71.6126      85.2388       129.96
    387 2 0       71.998      83.1019      131.636
    388 3 0      70.9024      83.2884      131.299
    389 2 0      71.2545      81.0193      133.039
    390 3 0      70.1323      81.1231      132.741
    391 2 0      76.2455      90.8046      126.641
    392 1 0      76.4362      91.3729      127.557
    393 2 0      77.2181      91.2676      125.508
    394 1 0      78.2566      91.0772      125.776
    395 1 0      77.0629      90.7024      124.595
    396 2 0      76.9653       92.792      125.283
    397 1 0      77.1599      93.3514      126.203
    398 2 0      77.9449      93.2495      124.152
    399 1 0      78.9819      93.0587      124.421
    400 1 0      77.7859      92.6836      123.239
    401 2 0      77.6874      94.7749      123.923
    402 1 0      77.8789      95.3345      124.843
    403 2 0      78.6657      95.2346      122.793
    404 1 0      79.7023      95.0436      123.064
    405 1 0      78.5068      94.6677      121.881
    406 2 0       78.407      96.7597      122.565
    407 1 0      78.5977      97.3195      123.486
    408 2 0      79.3857      97.2172      121.435
    409 1 0      80.4226      97.0277      121.707
    410 1 0      79.2277      96.6509      120.522
    411 2 0      79.1294       98.741      121.208
    412 1 0      79.3148      99.2975       122.13
    413 2 0      80.1122       99.205      120.081
    414 1 0      81.1472      99.0206      120.344
    415 1 0      79.9543      98.6442      119.165
    416 2 0      77.7556      98.9905      120.774
    417 3 0      76.6605      99.1908      120.427
    418 2 0      77.0175      96.9737      122.154
    419 3 0      75.9156      97.1434      121.828
    420 2 0      76.2996      94.9921       123.51
    421 3 0      75.1978      95.1645      123.182
    422 2 0      75.5828      93.0266      124.858
    423 3 0       74.487      93.2127      124.522
    424 2 0      74.8394      90.9441      126.261
    425 3 0      73.7172      91.0486      125.963
    426 1 0      79.9603      100.274      119.931
    427 1 0      78.1292      46.4564      19.1071
    428 2 0      77.0679      46.1948      19.1465
    429 1 0      76.7696      46.3476      20.1886
    430 2 0       76.236      47.1724       18.197
    431 1 0      76.4184      48.2146      18.4533
    432 1 0      76.5564      47.0901      17.1647
    433 2 0      74.7452      46.8483      18.3279
    434 1 0      74.4166      46.9764       19.362
    435 2 0      73.9621      47.8278      17.3911
    436 1 0      74.1538      48.8658      17.6535
    437 1 0      74.2945      47.7355      16.3617
    438 2 0      72.4404      47.4895      17.5173
    439 1 0      72.1064      47.6156      18.5514
    440 2 0      71.6728      48.4757      16.5783
    441 1 0      71.8697      49.5124      16.8438
    442 1 0      72.0096      48.3833        15.55
    443 2 0      70.1511       48.137      16.7044
    444 1 0      69.8181      48.2622      17.7396
    445 2 0      69.3881      49.1246      15.7634
    446 1 0      69.5847      50.1612      16.0314
    447 1 0      69.7252      49.0327       14.736
    448 2 0      67.8682      48.7869      15.8919
    449 1 0        67.54      48.9072      16.9274
    450 2 0      67.0994      49.7797       14.955
    451 1 0      67.2905      50.8136      15.2163
    452 1 0      67.4319      49.6866      13.9263
    453 2 0      67.5892      47.4172      15.4646
    454 3 0      67.3663      46.3247      15.1235
    455 2 0      69.9131      46.7522      16.2905
    456 3 0      69.7245      45.6542      15.9621
    457 2 0      72.1957      46.1072      17.1016
    458 3 0      72.0012      45.0098      16.7715
    459 2 0      74.4755      45.4631      17.9076
    460 3 0       74.263      44.3725      17.5769
    461 2 0      76.8563      44.7647      18.7221
    462 3 0      76.6939      43.6682      18.3969
    463 2 0      65.5824      49.4156      15.0929
    464 1 0      65.2421      49.5403      16.1247
    465 2 0      64.8145      50.3974      14.1494
    466 1 0      65.0126      51.4358       14.414
    467 1 0      65.1519      50.3076       13.122
    468 2 0      63.2948      50.0627      14.2807
    469 1 0      62.9636      50.1922      15.3144
    470 2 0      62.5326       51.052      13.3389
    471 1 0      62.7307      52.0889      13.6035
    472 1 0      62.8704      50.9587       12.311
    473 2 0      61.0113       50.713      13.4655
    474 1 0      60.6793       50.839      14.5004
    475 2 0      60.2472      51.7007      12.5255
    476 1 0      60.4457      52.7368      12.7921
    477 1 0      60.5856      51.6074      11.4979
    478 2 0      58.7259      51.3602      12.6535
    479 1 0      58.3943      51.4856      13.6885
    480 2 0      57.9634      52.3487      11.7117
    481 1 0      58.1613       53.385      11.9803
    482 1 0       58.302      52.2563      10.6846
    483 2 0      56.4443      52.0104      11.8403
    484 1 0      56.1163      52.1306      12.8769
    485 2 0      55.6757      53.0038      10.9034
    486 1 0      55.8669      54.0366      11.1652
    487 1 0      56.0083      52.9098       9.8752
    488 2 0      56.1659      50.6404      11.4132
    489 3 0      55.9435      49.5478      11.0725
    490 2 0      58.4886      49.9757      12.2391
    491 3 0      58.3003      48.8777      11.9106
    492 2 0      60.7704      49.3297      13.0503
    493 3 0      60.5791      48.2315      12.7208
    494 2 0      63.0339      48.6844      13.8581
    495 3 0      62.8268       47.592      13.5231
    496 2 0      65.4259      48.0175      14.6902
    497 3 0      65.3095      46.9019      14.3727
    498 2 0      54.1592      52.6388      11.0419
    499 1 0      53.8184      52.7638      12.0737
    500 2 0      53.3907      53.6206      10.0983
    501 1 0      53.5889      54.6592      10.3629
    502 1 0      53.7282      53.5311      9.07086
    503 2 0      51.8713       53.286      10.2295
    504 1 0        51.54      53.4155      11.2634
    505 2 0      51.1083      54.2757      9.28752
    506 1 0      51.3072      55.3124      9.55245
    507 1 0      51.4468      54.1821      8.25991
    508 2 0      49.5877      53.9366      9.41464
    509 1 0      49.2557      54.0625       10.449
    510 2 0       48.824      54.9239      8.47451
    511 1 0      49.0219      55.9604      8.74091
    512 1 0      49.1618      54.8309      7.44672
    513 2 0      47.3023      54.5833      8.60254
    514 1 0      46.9706       54.709      9.63717
    515 2 0      46.5394      55.5722      7.66045
    516 1 0      46.7376      56.6083      7.92913
    517 1 0      46.8782      55.4796      6.63349
    518 2 0       45.021      55.2339        7.789
    519 1 0      44.6924       55.354      8.82605
    520 2 0      44.2523      56.2273      6.85225
    521 1 0      44.4433      57.2599      7.11406
    522 1 0      44.5848      56.1333      5.82405
    523 2 0      44.7425      53.8636      7.36212
    524 3 0        44.52      52.7709      7.02148
    525 2 0      47.0652      53.1989      8.18827
    526 3 0      46.8772      52.1009      7.85956
    527 2 0      49.3467       52.553      8.99934
    528 3 0      49.1555      51.4549      8.66971
    529 2 0      51.6098       51.908      9.80682
    530 3 0      51.4022      50.8156      9.47173
    531 2 0      54.0018       51.241      10.6389
    532 3 0      53.8851      50.1256      10.3212
    533 2 0      42.7358      55.8623      6.99039
    534 1 0      42.3947      55.9872      8.02295
    535 2 0      41.9676      56.8443      6.04721
    536 1 0      42.1654      57.8825      6.31178
    537 1 0      42.3047      56.7546      5.01978
    538 2 0       40.448      56.5097      6.17779
    539 1 0      40.1163      56.6389      7.21279
    540 2 0      39.6854       57.499      5.23652
    541 1 0      39.8837      58.5356       5.5013
    542 1 0      40.0234      57.4055      4.20871
    543 2 0      38.1641      57.1597      5.36343
    544 1 0      37.8323      57.2858      6.39797
    545 2 0      37.3997      58.1476      4.42308
    546 1 0      37.5987      59.1837      4.68987
    547 1 0      37.7387      58.0543      3.39556
    548 2 0      35.8789      57.8072      4.55098
    549 1 0      35.5473      57.9324      5.58636
    550 2 0      35.1165      58.7955      3.60942
    551 1 0      35.3143      59.8318      3.87797
    552 1 0      35.4549       58.703      2.58228
    553 2 0      33.5971      58.4575      3.73837
    554 1 0      33.2693      58.5776      4.77417
    555 2 0       32.829      59.4495      2.80171
    556 1 0      33.0199      60.4839      3.06289
    557 1 0      33.1613      59.3569      1.77268
    558 2 0       33.319      57.0872      3.31111
    559 3 0      33.0957      55.9948      2.97003
    560 2 0      35.6414      56.4224      4.13663
    561 3 0      35.4531      55.3244      3.80814
    562 2 0      37.9229      55.7766      4.94805
    563 3 0      37.7315      54.6785      4.61822
    564 2 0      40.1869      55.1313      5.75576
    565 3 0      39.9799      54.0387      5.42104
    566 2 0      42.5788      54.4643      6.58775
    567 3 0      42.4614      53.3489      6.26994
    568 1 0      31.7641      59.2399      2.90243
    569 1 0      36.5911      104.868      59.6296
    570 2 0      37.1614      105.415      58.8734
    571 1 0      38.0798      105.734      59.3767
    572 2 0        37.52      104.441      57.6598
    573 1 0      38.0405      103.553      58.0125
    574 1 0      36.6261      104.057      57.1823
    575 2 0      38.3888      105.198      56.6512
    576 1 0      39.3099      105.545      57.1258
    577 2 0      38.7259      104.214      55.4817
    578 1 0      39.2425      103.328      55.8452
    579 1 0      37.8218      103.836      55.0145
    580 2 0      39.6046       104.99      54.4468
    581 1 0      40.5281       105.34      54.9176
    582 2 0      39.9336      103.995      53.2875
    583 1 0      40.4484       103.11      53.6568
    584 1 0      39.0274      103.616      52.8243
    585 2 0      40.8121      104.771      52.2525