# LAMMPS data file written by Ovito Basic 3.0.0-dev791
320 atoms
2 atom types
0.0 3.5057981014 xlo xhi
0.0 11.0863075256 ylo yhi
0.0 88.6904602051 zlo zhi

Atoms  # charge

1 1 0.0 0.0 0.0 44.345226288
2 1 0.0 0.0 0.0 55.431533813
3 1 0.0 0.0 0.0 66.517837524
4 1 0.0 0.0 0.0 77.604156494
5 1 0.0 0.0 3.325891972 45.453853607
6 1 0.0 0.0 3.325891972 56.540161133
7 1 0.0 0.0 3.325891972 67.626472473
8 1 0.0 0.0 3.325891972 78.712791443
9 1 0.0 0.0 2.217261314 48.779747009
10 1 0.0 0.0 2.217261314 59.866054535
11 1 0.0 0.0 2.217261314 70.952362061
12 1 0.0 0.0 2.217261314 82.038665771
13 1 0.0 0.0 1.108630896 52.105636597
14 1 0.0 0.0 1.108630896 63.191944122
15 1 0.0 0.0 1.108630896 74.278251648
16 1 0.0 0.0 1.108630896 85.364555359
17 1 0.0 0.0 9.977675438 47.67111969
18 1 0.0 0.0 9.977675438 58.757427216
19 1 0.0 0.0 9.977675438 69.843742371
20 1 0.0 0.0 9.977675438 80.930038452
21 1 0.0 0.0 8.869045258 50.997009277
22 1 0.0 0.0 8.869045258 62.083316803
23 1 0.0 0.0 8.869045258 73.169631958
24 1 0.0 0.0 8.869045258 84.25592804
25 1 0.0 0.0 7.7604146 54.322902679
26 1 0.0 0.0 7.7604146 65.409210205
27 1 0.0 0.0 7.7604146 76.495506287
28 1 0.0 0.0 7.7604146 87.581817627
29 1 0.0 0.0 6.651783943 46.562484741
30 1 0.0 0.0 6.651783943 57.648792267
31 1 0.0 0.0 6.651783943 68.735107422
32 1 0.0 0.0 6.651783943 79.821403503
33 1 0.0 0.0 5.543153286 49.888378143
34 1 0.0 0.0 5.543153286 60.974685669
35 1 0.0 0.0 5.543153286 72.060997009
36 1 0.0 0.0 5.543153286 83.14730072
37 1 0.0 0.0 4.434522629 53.214271545
38 1 0.0 0.0 4.434522629 64.300575256
39 1 0.0 0.0 4.434522629 75.386886597
40 1 0.0 0.0 4.434522629 86.473190308
41 1 0.0 0.0 8.869045258 45.453853607
42 1 0.0 0.0 8.869045258 56.540161133
43 1 0.0 0.0 8.869045258 67.626472473
44 1 0.0 0.0 8.869045258 78.712791443
45 1 0.0 0.0 1.108630896 46.562484741
46 1 0.0 0.0 1.108630896 57.648792267
47 1 0.0 0.0 1.108630896 68.735107422
48 1 0.0 0.0 1.108630896 79.821403503
49 1 0.0 0.0 0.0 49.888378143
50 1 0.0 0.0 0.0 60.974685669
51 1 0.0 0.0 0.0 72.060997009
52 1 0.0 0.0 0.0 83.14730072
53 1 0.0 0.0 9.977675438 53.214271545
54 1 0.0 0.0 9.977675438 64.300575256
55 1 0.0 0.0 9.977675438 75.386886597
56 1 0.0 0.0 9.977675438 86.473190308
57 1 0.0 0.0 7.7604146 48.779747009
58 1 0.0 0.0 7.7604146 59.866054535
59 1 0.0 0.0 7.7604146 70.952362061
60 1 0.0 0.0 7.7604146 82.038665771
61 1 0.0 0.0 6.651783943 52.105636597
62 1 0.0 0.0 6.651783943 63.191944122
63 1 0.0 0.0 6.651783943 74.278251648
64 1 0.0 0.0 6.651783943 85.364555359
65 1 0.0 0.0 5.543153286 44.345226288
66 1 0.0 0.0 5.543153286 55.431533813
67 1 0.0 0.0 5.543153286 66.517837524
68 1 0.0 0.0 5.543153286 77.604156494
69 1 0.0 0.0 4.434522629 47.67111969
70 1 0.0 0.0 4.434522629 58.757427216
71 1 0.0 0.0 4.434522629 69.843742371
72 1 0.0 0.0 4.434522629 80.930038452
73 1 0.0 0.0 3.325891972 50.997009277
74 1 0.0 0.0 3.325891972 62.083316803
75 1 0.0 0.0 3.325891972 73.169631958
76 1 0.0 0.0 3.325891972 84.25592804
77 1 0.0 0.0 2.217261314 54.322902679
78 1 0.0 0.0 2.217261314 65.409210205
79 1 0.0 0.0 2.217261314 76.495506287
80 1 0.0 0.0 2.217261314 87.581817627
81 1 0.0 1.752898932 10.531991005 46.008171082
82 1 0.0 1.752898932 10.531991005 57.094478607
83 1 0.0 1.752898932 10.531991005 68.180786133
84 1 0.0 1.752898932 10.531991005 79.267097473
85 1 0.0 1.752898932 2.771576643 47.116802216
86 1 0.0 1.752898932 2.771576643 58.203109741
87 1 0.0 1.752898932 2.771576643 69.289413452
88 1 0.0 1.752898932 2.771576643 80.375732422
89 1 0.0 1.752898932 1.662945747 50.442695618
90 1 0.0 1.752898932 1.662945747 61.529003143
91 1 0.0 1.752898932 1.662945747 72.615310669
92 1 0.0 1.752898932 1.662945747 83.701622009
93 1 0.0 1.752898932 0.554315448 53.768585205
94 1 0.0 1.752898932 0.554315448 64.854888916
95 1 0.0 1.752898932 0.554315448 75.941200256
96 1 0.0 1.752898932 0.554315448 87.027496338
97 1 0.0 1.752898932 9.423360825 49.334060669
98 1 0.0 1.752898932 9.423360825 60.420368195
99 1 0.0 1.752898932 9.423360825 71.50667572
100 1 0.0 1.752898932 9.423360825 82.592987061
101 1 0.0 1.752898932 8.314729691 52.659954071
102 1 0.0 1.752898932 8.314729691 63.746261597
103 1 0.0 1.752898932 8.314729691 74.832565308
104 1 0.0 1.752898932 8.314729691 85.918876648
105 1 0.0 1.752898932 7.206099033 44.899543762
106 1 0.0 1.752898932 7.206099033 55.985851288
107 1 0.0 1.752898932 7.206099033 67.072166443
108 1 0.0 1.752898932 7.206099033 78.158462524
109 1 0.0 1.752898932 6.097467899 48.225429535
110 1 0.0 1.752898932 6.097467899 59.311737061
111 1 0.0 1.752898932 6.097467899 70.398040771
112 1 0.0 1.752898932 6.097467899 81.484352112
113 1 0.0 1.752898932 4.988837719 51.551326752
114 1 0.0 1.752898932 4.988837719 62.637634277
115 1 0.0 1.752898932 4.988837719 73.723937988
116 1 0.0 1.752898932 4.988837719 84.810256958
117 1 0.0 1.752898932 3.880206823 54.877216339
118 1 0.0 1.752898932 3.880206823 65.963516235
119 1 0.0 1.752898932 3.880206823 77.049827576
120 1 0.0 1.752898932 3.880206823 88.136131287
121 1 0.0 1.752898932 9.423360825 54.877216339
122 1 0.0 1.752898932 9.423360825 65.963516235
123 1 0.0 1.752898932 9.423360825 77.049827576
124 1 0.0 1.752898932 9.423360825 88.136131287
125 1 0.0 1.752898932 1.662945747 44.899543762
126 1 0.0 1.752898932 1.662945747 55.985851288
127 1 0.0 1.752898932 1.662945747 67.072166443
128 1 0.0 1.752898932 1.662945747 78.158462524
129 1 0.0 1.752898932 0.554314792 48.225429535
130 1 0.0 1.752898932 0.554314792 59.311737061
131 1 0.0 1.752898932 0.554314792 70.398040771
132 1 0.0 1.752898932 0.554314792 81.484352112
133 1 0.0 1.752898932 10.531991959 51.551326752
134 1 0.0 1.752898932 10.531991959 62.637634277
135 1 0.0 1.752898932 10.531991959 73.723937988
136 1 0.0 1.752898932 10.531991959 84.810256958
137 1 0.0 1.752898932 8.314729691 47.116802216
138 1 0.0 1.752898932 8.314729691 58.203109741
139 1 0.0 1.752898932 8.314729691 69.289413452
140 1 0.0 1.752898932 8.314729691 80.375732422
141 1 0.0 1.752898932 7.206099033 50.442695618
142 1 0.0 1.752898932 7.206099033 61.529003143
143 1 0.0 1.752898932 7.206099033 72.615310669
144 1 0.0 1.752898932 7.206099033 83.701622009
145 1 0.0 1.752898932 6.097467899 53.768585205
146 1 0.0 1.752898932 6.097467899 64.854888916
147 1 0.0 1.752898932 6.097467899 75.941200256
148 1 0.0 1.752898932 6.097467899 87.027496338
149 1 0.0 1.752898932 4.988837719 46.008171082
150 1 0.0 1.752898932 4.988837719 57.094478607
151 1 0.0 1.752898932 4.988837719 68.180786133
152 1 0.0 1.752898932 4.988837719 79.267097473
153 1 0.0 1.752898932 3.880207539 49.334064484
154 1 0.0 1.752898932 3.880207539 60.420368195
155 1 0.0 1.752898932 3.880207539 71.50667572
156 1 0.0 1.752898932 3.880207539 82.592987061
157 1 0.0 1.752898932 2.771576643 52.659954071
158 1 0.0 1.752898932 2.771576643 63.746261597
159 1 0.0 1.752898932 2.771576643 74.832565308
160 1 0.0 1.752898932 2.771576643 85.918876648
161 2 0.0 0.0 0.0 0.0
162 2 0.0 0.0 0.0 11.086306572
163 2 0.0 0.0 0.0 22.172613144
164 2 0.0 0.0 0.0 33.258918762
165 2 0.0 0.0 7.7604146 1.108630657
166 2 0.0 0.0 7.7604146 12.194936752
167 2 0.0 0.0 7.7604146 23.281242371
168 2 0.0 0.0 7.7604146 34.367553711
169 2 0.0 0.0 8.869045258 4.434522629
170 2 0.0 0.0 8.869045258 15.520829201
171 2 0.0 0.0 8.869045258 26.607135773
172 2 0.0 0.0 8.869045258 37.693443298
173 2 0.0 0.0 9.977675438 7.7604146
174 2 0.0 0.0 9.977675438 18.846721649
175 2 0.0 0.0 9.977675438 29.933027267
176 2 0.0 0.0 9.977675438 41.019332886
177 2 0.0 0.0 1.108630657 3.325891972
178 2 0.0 0.0 1.108630657 14.412198067
179 2 0.0 0.0 1.108630657 25.498504639
180 2 0.0 0.0 1.108630657 36.584815979
181 2 0.0 0.0 2.217261314 6.651783943
182 2 0.0 0.0 2.217261314 17.738090515
183 2 0.0 0.0 2.217261314 28.824396133
184 2 0.0 0.0 2.217261314 39.910701752
185 2 0.0 0.0 3.325891972 9.977675438
186 2 0.0 0.0 3.325891972 21.06398201
187 2 0.0 0.0 3.325891972 32.150287628
188 2 0.0 0.0 3.325891972 43.236595154
189 2 0.0 0.0 4.434522629 2.217261314
190 2 0.0 0.0 4.434522629 13.303567886
191 2 0.0 0.0 4.434522629 24.389873505
192 2 0.0 0.0 4.434522629 35.47618103
193 2 0.0 0.0 5.543153286 5.543153286
194 2 0.0 0.0 5.543153286 16.629459381
195 2 0.0 0.0 5.543153286 27.715766907
196 2 0.0 0.0 5.543153286 38.802078247
197 2 0.0 0.0 6.651783943 8.869045258
198 2 0.0 0.0 6.651783943 19.955350876
199 2 0.0 0.0 6.651783943 31.041658401
200 2 0.0 0.0 6.651783943 42.12796402
201 2 0.0 0.0 2.217261314 1.108630657
202 2 0.0 0.0 2.217261314 12.194936752
203 2 0.0 0.0 2.217261314 23.281242371
204 2 0.0 0.0 2.217261314 34.367553711
205 2 0.0 0.0 9.977675438 2.217261314
206 2 0.0 0.0 9.977675438 13.303567886
207 2 0.0 0.0 9.977675438 24.389873505
208 2 0.0 0.0 9.977675438 35.47618103
209 2 0.0 0.0 0.0 5.543153286
210 2 0.0 0.0 0.0 16.629459381
211 2 0.0 0.0 0.0 27.715766907
212 2 0.0 0.0 0.0 38.802078247
213 2 0.0 0.0 1.108630896 8.869045258
214 2 0.0 0.0 1.108630896 19.955350876
215 2 0.0 0.0 1.108630896 31.041658401
216 2 0.0 0.0 1.108630896 42.12796402
217 2 0.0 0.0 3.325891972 4.434522629
218 2 0.0 0.0 3.325891972 15.520829201
219 2 0.0 0.0 3.325891972 26.607135773
220 2 0.0 0.0 3.325891972 37.693443298
221 2 0.0 0.0 4.434522629 7.760415077
222 2 0.0 0.0 4.434522629 18.846721649
223 2 0.0 0.0 4.434522629 29.933027267
224 2 0.0 0.0 4.434522629 41.019332886
225 2 0.0 0.0 5.543153286 0.0
226 2 0.0 0.0 5.543153286 11.086306572
227 2 0.0 0.0 5.543153286 22.172613144
228 2 0.0 0.0 5.543153286 33.258918762
229 2 0.0 0.0 6.651783943 3.325891972
230 2 0.0 0.0 6.651783943 14.412198067
231 2 0.0 0.0 6.651783943 25.498504639
232 2 0.0 0.0 6.651783943 36.584815979
233 2 0.0 0.0 7.7604146 6.651783943
234 2 0.0 0.0 7.7604146 17.738090515
235 2 0.0 0.0 7.7604146 28.824396133
236 2 0.0 0.0 7.7604146 39.910701752
237 2 0.0 0.0 8.869045258 9.977676392
238 2 0.0 0.0 8.869045258 21.063983917
239 2 0.0 0.0 8.869045258 32.150287628
240 2 0.0 0.0 8.869045258 43.236595154
241 2 0.0 1.752898932 0.554315329 1.662945986
242 2 0.0 1.752898932 0.554315329 12.749252319
243 2 0.0 1.752898932 0.554315329 23.835559845
244 2 0.0 1.752898932 0.554315329 34.921871185
245 2 0.0 1.752898932 8.314729691 2.771576643
246 2 0.0 1.752898932 8.314729691 13.857883453
247 2 0.0 1.752898932 8.314729691 24.944189072
248 2 0.0 1.752898932 8.314729691 36.030498505
249 2 0.0 1.752898932 9.423360825 6.097468376
250 2 0.0 1.752898932 9.423360825 17.183776855
251 2 0.0 1.752898932 9.423360825 28.270080566
252 2 0.0 1.752898932 9.423360825 39.356388092
253 2 0.0 1.752898932 10.531991005 9.423360825
254 2 0.0 1.752898932 10.531991005 20.509666443
255 2 0.0 1.752898932 10.531991005 31.595972061
256 2 0.0 1.752898932 10.531991005 42.682277679
257 2 0.0 1.752898932 1.662945986 4.988838196
258 2 0.0 1.752898932 1.662945986 16.075143814
259 2 0.0 1.752898932 1.662945986 27.16145134
260 2 0.0 1.752898932 1.662945986 38.247756958
261 2 0.0 1.752898932 2.771576643 8.314729691
262 2 0.0 1.752898932 2.771576643 19.401039124
263 2 0.0 1.752898932 2.771576643 30.487342834
264 2 0.0 1.752898932 2.771576643 41.57365036
265 2 0.0 1.752898932 3.880207539 0.554314792
266 2 0.0 1.752898932 3.880207539 11.640621185
267 2 0.0 1.752898932 3.880207539 22.726926804
268 2 0.0 1.752898932 3.880207539 33.813236237
269 2 0.0 1.752898932 4.988838196 3.880207539
270 2 0.0 1.752898932 4.988838196 14.966513634
271 2 0.0 1.752898932 4.988838196 26.052818298
272 2 0.0 1.752898932 4.988838196 37.139125824
273 2 0.0 1.752898932 6.097468376 7.206099033
274 2 0.0 1.752898932 6.097468376 18.29240799
275 2 0.0 1.752898932 6.097468376 29.378713608
276 2 0.0 1.752898932 6.097468376 40.465019226
277 2 0.0 1.752898932 7.20609951 10.531991959
278 2 0.0 1.752898932 7.20609951 21.618297577
279 2 0.0 1.752898932 7.20609951 32.704605103
280 2 0.0 1.752898932 7.20609951 43.790912628
281 2 0.0 1.752898932 1.662945986 10.531991005
282 2 0.0 1.752898932 1.662945986 21.618297577
283 2 0.0 1.752898932 1.662945986 32.704605103
284 2 0.0 1.752898932 1.662945986 43.790912628
285 2 0.0 1.752898932 9.423360825 0.554314792
286 2 0.0 1.752898932 9.423360825 11.640621185
287 2 0.0 1.752898932 9.423360825 22.726926804
288 2 0.0 1.752898932 9.423360825 33.813236237
289 2 0.0 1.752898932 10.531991959 3.880207539
290 2 0.0 1.752898932 10.531991959 14.966513634
291 2 0.0 1.752898932 10.531991959 26.052818298
292 2 0.0 1.752898932 10.531991959 37.139125824
293 2 0.0 1.752898932 0.554314792 7.206099033
294 2 0.0 1.752898932 0.554314792 18.29240799
295 2 0.0 1.752898932 0.554314792 29.378713608
296 2 0.0 1.752898932 0.554314792 40.465019226
297 2 0.0 1.752898932 2.771576643 2.771576643
298 2 0.0 1.752898932 2.771576643 13.857883453
299 2 0.0 1.752898932 2.771576643 24.944189072
300 2 0.0 1.752898932 2.771576643 36.030498505
301 2 0.0 1.752898932 3.880207539 6.097467899
302 2 0.0 1.752898932 3.880207539 17.183776855
303 2 0.0 1.752898932 3.880207539 28.270080566
304 2 0.0 1.752898932 3.880207539 39.356388092
305 2 0.0 1.752898932 4.988838196 9.423358917
306 2 0.0 1.752898932 4.988838196 20.509666443
307 2 0.0 1.752898932 4.988838196 31.595972061
308 2 0.0 1.752898932 4.988838196 42.682277679
309 2 0.0 1.752898932 6.097468376 1.662945747
310 2 0.0 1.752898932 6.097468376 12.749252319
311 2 0.0 1.752898932 6.097468376 23.835559845
312 2 0.0 1.752898932 6.097468376 34.921871185
313 2 0.0 1.752898932 7.206099033 4.988839149
314 2 0.0 1.752898932 7.206099033 16.075143814
315 2 0.0 1.752898932 7.206099033 27.16145134
316 2 0.0 1.752898932 7.206099033 38.247756958
317 2 0.0 1.752898932 8.314729691 8.314729691
318 2 0.0 1.752898932 8.314729691 19.401039124
319 2 0.0 1.752898932 8.314729691 30.487342834
320 2 0.0 1.752898932 8.314729691 41.57365036
