# LAMMPS data file written by Ovito Basic 3.0.0-dev791
2080 atoms
2 atom types
0.0 3.5057981014 xlo xhi
0.0 28.2646484375 ylo yhi
0.0 226.1171875 zlo zhi

Atoms  # charge

1 1 0.0 0.0 0.0 113.058586121
2 1 0.0 0.0 0.0 141.323226929
3 1 0.0 0.0 0.0 169.587875366
4 1 0.0 0.0 0.0 197.852523804
5 1 0.0 0.0 3.478725433 113.493423462
6 1 0.0 0.0 3.478725433 141.758071899
7 1 0.0 0.0 3.478725433 170.022720337
8 1 0.0 0.0 3.478725433 198.287368774
9 1 0.0 0.0 3.043884754 116.972145081
10 1 0.0 0.0 3.043884754 145.236801147
11 1 0.0 0.0 3.043884754 173.501449585
12 1 0.0 0.0 3.043884754 201.766098022
13 1 0.0 0.0 2.609044075 120.450874329
14 1 0.0 0.0 2.609044075 148.715515137
15 1 0.0 0.0 2.609044075 176.980163574
16 1 0.0 0.0 2.609044075 205.244812012
17 1 0.0 0.0 2.174203396 123.929603577
18 1 0.0 0.0 2.174203396 152.194244385
19 1 0.0 0.0 2.174203396 180.458892822
20 1 0.0 0.0 2.174203396 208.72354126
21 1 0.0 0.0 1.739362717 127.408325195
22 1 0.0 0.0 1.739362717 155.672973633
23 1 0.0 0.0 1.739362717 183.93762207
24 1 0.0 0.0 1.739362717 212.202270508
25 1 0.0 0.0 1.304522038 130.887054443
26 1 0.0 0.0 1.304522038 159.151702881
27 1 0.0 0.0 1.304522038 187.416351318
28 1 0.0 0.0 1.304522038 215.680999756
29 1 0.0 0.0 0.869683087 134.365768433
30 1 0.0 0.0 0.869683087 162.63041687
31 1 0.0 0.0 0.869683087 190.895065308
32 1 0.0 0.0 0.869683087 219.159713745
33 1 0.0 0.0 0.434840679 137.844497681
34 1 0.0 0.0 0.434840679 166.109146118
35 1 0.0 0.0 0.434840679 194.373779297
36 1 0.0 0.0 0.434840679 222.638427734
37 1 0.0 0.0 27.829805374 116.537307739
38 1 0.0 0.0 27.829805374 144.801956177
39 1 0.0 0.0 27.829805374 173.066604614
40 1 0.0 0.0 27.829805374 201.331268311
41 1 0.0 0.0 27.394964218 120.016029358
42 1 0.0 0.0 27.394964218 148.280700684
43 1 0.0 0.0 27.394964218 176.545349121
44 1 0.0 0.0 27.394964218 204.809997559
45 1 0.0 0.0 26.960124969 123.494758606
46 1 0.0 0.0 26.960124969 151.759399414
47 1 0.0 0.0 26.960124969 180.024047852
48 1 0.0 0.0 26.960124969 208.288696289
49 1 0.0 0.0 26.525283813 126.973480225
50 1 0.0 0.0 26.525283813 155.238128662
51 1 0.0 0.0 26.525283813 183.5027771
52 1 0.0 0.0 26.525283813 211.767425537
53 1 0.0 0.0 26.090442657 130.452209473
54 1 0.0 0.0 26.090442657 158.71685791
55 1 0.0 0.0 26.090442657 186.981506348
56 1 0.0 0.0 26.090442657 215.246154785
57 1 0.0 0.0 25.655601501 133.930938721
58 1 0.0 0.0 25.655601501 162.195587158
59 1 0.0 0.0 25.655601501 190.460235596
60 1 0.0 0.0 25.655601501 218.724884033
61 1 0.0 0.0 25.220762253 137.409667969
62 1 0.0 0.0 25.220762253 165.674316406
63 1 0.0 0.0 25.220762253 193.938964844
64 1 0.0 0.0 25.220762253 222.203613281
65 1 0.0 0.0 24.785921097 140.888381958
66 1 0.0 0.0 24.785921097 169.153030396
67 1 0.0 0.0 24.785921097 197.417678833
68 1 0.0 0.0 24.785921097 225.682327271
69 1 0.0 0.0 24.351079941 116.102462769
70 1 0.0 0.0 24.351079941 144.367111206
71 1 0.0 0.0 24.351079941 172.631759644
72 1 0.0 0.0 24.351079941 200.896408081
73 1 0.0 0.0 23.916238785 119.581192017
74 1 0.0 0.0 23.916238785 147.845840454
75 1 0.0 0.0 23.916238785 176.110488892
76 1 0.0 0.0 23.916238785 204.375137329
77 1 0.0 0.0 23.481401443 123.059913635
78 1 0.0 0.0 23.481401443 151.324554443
79 1 0.0 0.0 23.481401443 179.589202881
80 1 0.0 0.0 23.481401443 207.853851318
81 1 0.0 0.0 23.04655838 126.538642883
82 1 0.0 0.0 23.04655838 154.803283691
83 1 0.0 0.0 23.04655838 183.067932129
84 1 0.0 0.0 23.04655838 211.332580566
85 1 0.0 0.0 22.611717224 130.017364502
86 1 0.0 0.0 22.611717224 158.282012939
87 1 0.0 0.0 22.611717224 186.546661377
88 1 0.0 0.0 22.611717224 214.811309814
89 1 0.0 0.0 22.176876068 133.49609375
90 1 0.0 0.0 22.176876068 161.760742188
91 1 0.0 0.0 22.176876068 190.025390625
92 1 0.0 0.0 22.176876068 218.290039063
93 1 0.0 0.0 21.742036819 136.974822998
94 1 0.0 0.0 21.742036819 165.239471436
95 1 0.0 0.0 21.742036819 193.504119873
96 1 0.0 0.0 21.742036819 221.768768311
97 1 0.0 0.0 21.307195663 140.453536987
98 1 0.0 0.0 21.307195663 168.718185425
99 1 0.0 0.0 21.307195663 196.982833862
100 1 0.0 0.0 21.307195663 225.2474823
101 1 0.0 0.0 20.8723526 115.667617798
102 1 0.0 0.0 20.8723526 143.932266235
103 1 0.0 0.0 20.8723526 172.196929932
104 1 0.0 0.0 20.8723526 200.461578369
105 1 0.0 0.0 20.437513351 119.146347046
106 1 0.0 0.0 20.437513351 147.410995483
107 1 0.0 0.0 20.437513351 175.675643921
108 1 0.0 0.0 20.437513351 203.940292358
109 1 0.0 0.0 20.002670288 122.625076294
110 1 0.0 0.0 20.002670288 150.889724731
111 1 0.0 0.0 20.002670288 179.154403687
112 1 0.0 0.0 20.002670288 207.419052124
113 1 0.0 0.0 19.567832947 126.103797913
114 1 0.0 0.0 19.567832947 154.368453979
115 1 0.0 0.0 19.567832947 182.633102417
116 1 0.0 0.0 19.567832947 210.897750854
117 1 0.0 0.0 19.132989883 129.582519531
118 1 0.0 0.0 19.132989883 157.847183228
119 1 0.0 0.0 19.132989883 186.111831665
120 1 0.0 0.0 19.132989883 214.376480103
121 1 0.0 0.0 18.698150635 133.061248779
122 1 0.0 0.0 18.698150635 161.325897217
123 1 0.0 0.0 18.698150635 189.590545654
124 1 0.0 0.0 18.698150635 217.855194092
125 1 0.0 0.0 18.263307571 136.539993286
126 1 0.0 0.0 18.263307571 164.804641724
127 1 0.0 0.0 18.263307571 193.069290161
128 1 0.0 0.0 18.263307571 221.333938599
129 1 0.0 0.0 17.828468323 140.018722534
130 1 0.0 0.0 17.828468323 168.283370972
131 1 0.0 0.0 17.828468323 196.548019409
132 1 0.0 0.0 17.828468323 224.812667847
133 1 0.0 0.0 17.393627167 115.232780457
134 1 0.0 0.0 17.393627167 143.497436523
135 1 0.0 0.0 17.393627167 171.762084961
136 1 0.0 0.0 17.393627167 200.026733398
137 1 0.0 0.0 16.958787918 118.711502075
138 1 0.0 0.0 16.958787918 146.976150513
139 1 0.0 0.0 16.958787918 175.24079895
140 1 0.0 0.0 16.958787918 203.505447388
141 1 0.0 0.0 16.523944855 122.190231323
142 1 0.0 0.0 16.523944855 150.45489502
143 1 0.0 0.0 16.523944855 178.719543457
144 1 0.0 0.0 16.523944855 206.984191895
145 1 0.0 0.0 16.089107513 125.668952942
146 1 0.0 0.0 16.089107513 153.933609009
147 1 0.0 0.0 16.089107513 182.198257446
148 1 0.0 0.0 16.089107513 210.462905884
149 1 0.0 0.0 15.65426445 129.147689819
150 1 0.0 0.0 15.65426445 157.412338257
151 1 0.0 0.0 15.65426445 185.676986694
152 1 0.0 0.0 15.65426445 213.941635132
153 1 0.0 0.0 15.219425201 132.626403809
154 1 0.0 0.0 15.219425201 160.891052246
155 1 0.0 0.0 15.219425201 189.155700684
156 1 0.0 0.0 15.219425201 217.420349121
157 1 0.0 0.0 14.784583092 136.105148315
158 1 0.0 0.0 14.784583092 164.369796753
159 1 0.0 0.0 14.784583092 192.63444519
160 1 0.0 0.0 14.784583092 220.899093628
161 1 0.0 0.0 14.349743843 139.583862305
162 1 0.0 0.0 14.349743843 167.848510742
163 1 0.0 0.0 14.349743843 196.11315918
164 1 0.0 0.0 14.349743843 224.377807617
165 1 0.0 0.0 13.914901733 114.797950745
166 1 0.0 0.0 13.914901733 143.062591553
167 1 0.0 0.0 13.914901733 171.32723999
168 1 0.0 0.0 13.914901733 199.591888428
169 1 0.0 0.0 13.480061531 118.276672363
170 1 0.0 0.0 13.480061531 146.541305542
171 1 0.0 0.0 13.480061531 174.805953979
172 1 0.0 0.0 13.480061531 203.070602417
173 1 0.0 0.0 13.045220375 121.755401611
174 1 0.0 0.0 13.045220375 150.020050049
175 1 0.0 0.0 13.045220375 178.284698486
176 1 0.0 0.0 13.045220375 206.549346924
177 1 0.0 0.0 12.610380173 125.234130859
178 1 0.0 0.0 12.610380173 153.498764038
179 1 0.0 0.0 12.610380173 181.763412476
180 1 0.0 0.0 12.610380173 210.028060913
181 1 0.0 0.0 12.175539017 128.712860107
182 1 0.0 0.0 12.175539017 156.977508545
183 1 0.0 0.0 12.175539017 185.242156982
184 1 0.0 0.0 12.175539017 213.50680542
185 1 0.0 0.0 11.740698814 132.191574097
186 1 0.0 0.0 11.740698814 160.456207275
187 1 0.0 0.0 11.740698814 188.720855713
188 1 0.0 0.0 11.740698814 216.98550415
189 1 0.0 0.0 11.305857658 135.670303345
190 1 0.0 0.0 11.305857658 163.934951782
191 1 0.0 0.0 11.305857658 192.19960022
192 1 0.0 0.0 11.305857658 220.464248657
193 1 0.0 0.0 10.87101841 139.149032593
194 1 0.0 0.0 10.87101841 167.413665771
195 1 0.0 0.0 10.87101841 195.678314209
196 1 0.0 0.0 10.87101841 223.942962646
197 1 0.0 0.0 10.436178207 114.363105774
198 1 0.0 0.0 10.436178207 142.627746582
199 1 0.0 0.0 10.436178207 170.89239502
200 1 0.0 0.0 10.436178207 199.157043457
201 1 0.0 0.0 10.001335144 117.841835022
202 1 0.0 0.0 10.001335144 146.10647583
203 1 0.0 0.0 10.001335144 174.371109009
204 1 0.0 0.0 10.001335144 202.635757446
205 1 0.0 0.0 9.566494942 121.320556641
206 1 0.0 0.0 9.566494942 149.585205078
207 1 0.0 0.0 9.566494942 177.849853516
208 1 0.0 0.0 9.566494942 206.114501953
209 1 0.0 0.0 9.131653786 124.799285889
210 1 0.0 0.0 9.131653786 153.063934326
211 1 0.0 0.0 9.131653786 181.328582764
212 1 0.0 0.0 9.131653786 209.593231201
213 1 0.0 0.0 8.696813583 128.278015137
214 1 0.0 0.0 8.696813583 156.542663574
215 1 0.0 0.0 8.696813583 184.807312012
216 1 0.0 0.0 8.696813583 213.071960449
217 1 0.0 0.0 8.261972427 131.756729126
218 1 0.0 0.0 8.261972427 160.021377563
219 1 0.0 0.0 8.261972427 188.286026001
220 1 0.0 0.0 8.261972427 216.550674438
221 1 0.0 0.0 7.827132225 135.235458374
222 1 0.0 0.0 7.827132225 163.500106812
223 1 0.0 0.0 7.827132225 191.764755249
224 1 0.0 0.0 7.827132225 220.029403687
225 1 0.0 0.0 7.392291546 138.714187622
226 1 0.0 0.0 7.392291546 166.97883606
227 1 0.0 0.0 7.392291546 195.243484497
228 1 0.0 0.0 7.392291546 223.508132935
229 1 0.0 0.0 6.957450867 113.928268433
230 1 0.0 0.0 6.957450867 142.19291687
231 1 0.0 0.0 6.957450867 170.457565308
232 1 0.0 0.0 6.957450867 198.722213745
233 1 0.0 0.0 6.522610188 117.406990051
234 1 0.0 0.0 6.522610188 145.671646118
235 1 0.0 0.0 6.522610188 173.936294556
236 1 0.0 0.0 6.522610188 202.200942993
237 1 0.0 0.0 6.087769508 120.885719299
238 1 0.0 0.0 6.087769508 149.150360107
239 1 0.0 0.0 6.087769508 177.415008545
240 1 0.0 0.0 6.087769508 205.679656982
241 1 0.0 0.0 5.652928829 124.364440918
242 1 0.0 0.0 5.652928829 152.629089355
243 1 0.0 0.0 5.652928829 180.893737793
244 1 0.0 0.0 5.652928829 209.15838623
245 1 0.0 0.0 5.21808815 127.843170166
246 1 0.0 0.0 5.21808815 156.107818604
247 1 0.0 0.0 5.21808815 184.372467041
248 1 0.0 0.0 5.21808815 212.637115479
249 1 0.0 0.0 4.78324604 131.321914673
250 1 0.0 0.0 4.78324604 159.58656311
251 1 0.0 0.0 4.78324604 187.851211548
252 1 0.0 0.0 4.78324604 216.115859985
253 1 0.0 0.0 4.348406792 134.800613403
254 1 0.0 0.0 4.348406792 163.065261841
255 1 0.0 0.0 4.348406792 191.329910278
256 1 0.0 0.0 4.348406792 219.594558716
257 1 0.0 0.0 3.913566113 138.279342651
258 1 0.0 0.0 3.913566113 166.543991089
259 1 0.0 0.0 3.913566113 194.808639526
260 1 0.0 0.0 3.913566113 223.073287964
261 1 0.0 0.0 26.307863235 114.580528259
262 1 0.0 0.0 26.307863235 142.845184326
263 1 0.0 0.0 26.307863235 171.109832764
264 1 0.0 0.0 26.307863235 199.374481201
265 1 0.0 0.0 1.521941543 115.015357971
266 1 0.0 0.0 1.521941543 143.280014038
267 1 0.0 0.0 1.521941543 171.544662476
268 1 0.0 0.0 1.521941543 199.809310913
269 1 0.0 0.0 1.087100863 118.49407959
270 1 0.0 0.0 1.087100863 146.758728027
271 1 0.0 0.0 1.087100863 175.023376465
272 1 0.0 0.0 1.087100863 203.288024902
273 1 0.0 0.0 0.652260184 121.972808838
274 1 0.0 0.0 0.652260184 150.237472534
275 1 0.0 0.0 0.652260184 178.502120972
276 1 0.0 0.0 0.652260184 206.766769409
277 1 0.0 0.0 0.217417821 125.451538086
278 1 0.0 0.0 0.217417821 153.716186523
279 1 0.0 0.0 0.217417821 181.980834961
280 1 0.0 0.0 0.217417821 210.245483398
281 1 0.0 0.0 28.047225952 128.930267334
282 1 0.0 0.0 28.047225952 157.194915771
283 1 0.0 0.0 28.047225952 185.459564209
284 1 0.0 0.0 28.047225952 213.724212646
285 1 0.0 0.0 27.612386703 132.408996582
286 1 0.0 0.0 27.612386703 160.673629761
287 1 0.0 0.0 27.612386703 188.938278198
288 1 0.0 0.0 27.612386703 217.202926636
289 1 0.0 0.0 27.17754364 135.88772583
290 1 0.0 0.0 27.17754364 164.152374268
291 1 0.0 0.0 27.17754364 192.417022705
292 1 0.0 0.0 27.17754364 220.681671143
293 1 0.0 0.0 26.742704391 139.366439819
294 1 0.0 0.0 26.742704391 167.631088257
295 1 0.0 0.0 26.742704391 195.895736694
296 1 0.0 0.0 26.742704391 224.160385132
297 1 0.0 0.0 25.873022079 118.059257507
298 1 0.0 0.0 25.873022079 146.323883057
299 1 0.0 0.0 25.873022079 174.588531494
300 1 0.0 0.0 25.873022079 202.853179932
301 1 0.0 0.0 25.438180923 121.537979126
302 1 0.0 0.0 25.438180923 149.802627563
303 1 0.0 0.0 25.438180923 178.067276001
304 1 0.0 0.0 25.438180923 206.331924438
305 1 0.0 0.0 25.003339767 125.016708374
306 1 0.0 0.0 25.003339767 153.281341553
307 1 0.0 0.0 25.003339767 181.54598999
308 1 0.0 0.0 25.003339767 209.810638428
309 1 0.0 0.0 24.568502426 128.495422363
310 1 0.0 0.0 24.568502426 156.760070801
311 1 0.0 0.0 24.568502426 185.024719238
312 1 0.0 0.0 24.568502426 213.289367676
313 1 0.0 0.0 24.133659363 131.974151611
314 1 0.0 0.0 24.133659363 160.238800049
315 1 0.0 0.0 24.133659363 188.503463745
316 1 0.0 0.0 24.133659363 216.768112183
317 1 0.0 0.0 23.698818207 135.452880859
318 1 0.0 0.0 23.698818207 163.717529297
319 1 0.0 0.0 23.698818207 191.982177734
320 1 0.0 0.0 23.698818207 220.246826172
321 1 0.0 0.0 23.263977051 138.931610107
322 1 0.0 0.0 23.263977051 167.196258545
323 1 0.0 0.0 23.263977051 195.460906982
324 1 0.0 0.0 23.263977051 223.72555542
325 1 0.0 0.0 22.829137802 114.145683289
326 1 0.0 0.0 22.829137802 142.410339355
327 1 0.0 0.0 22.829137802 170.674987793
328 1 0.0 0.0 22.829137802 198.93963623
329 1 0.0 0.0 22.394296646 117.624412537
330 1 0.0 0.0 22.394296646 145.889053345
331 1 0.0 0.0 22.394296646 174.153686523
332 1 0.0 0.0 22.394296646 202.418334961
333 1 0.0 0.0 21.95945549 121.103134155
334 1 0.0 0.0 21.95945549 149.367782593
335 1 0.0 0.0 21.95945549 177.63243103
336 1 0.0 0.0 21.95945549 205.897079468
337 1 0.0 0.0 21.524614334 124.581863403
338 1 0.0 0.0 21.524614334 152.846511841
339 1 0.0 0.0 21.524614334 181.111160278
340 1 0.0 0.0 21.524614334 209.375808716
341 1 0.0 0.0 21.089773178 128.060592651
342 1 0.0 0.0 21.089773178 156.325241089
343 1 0.0 0.0 21.089773178 184.589889526
344 1 0.0 0.0 21.089773178 212.854537964
345 1 0.0 0.0 20.654933929 131.539321899
346 1 0.0 0.0 20.654933929 159.803970337
347 1 0.0 0.0 20.654933929 188.068618774
348 1 0.0 0.0 20.654933929 216.333267212
349 1 0.0 0.0 20.220092773 135.018035889
350 1 0.0 0.0 20.220092773 163.282684326
351 1 0.0 0.0 20.220092773 191.547332764
352 1 0.0 0.0 20.220092773 219.811981201
353 1 0.0 0.0 19.785251617 138.496765137
354 1 0.0 0.0 19.785251617 166.761413574
355 1 0.0 0.0 19.785251617 195.026062012
356 1 0.0 0.0 19.785251617 223.290710449
357 1 0.0 0.0 19.350410461 113.710845947
358 1 0.0 0.0 19.350410461 141.975494385
359 1 0.0 0.0 19.350410461 170.240142822
360 1 0.0 0.0 19.350410461 198.50479126
361 1 0.0 0.0 18.915569305 117.189567566
362 1 0.0 0.0 18.915569305 145.454238892
363 1 0.0 0.0 18.915569305 173.718887329
364 1 0.0 0.0 18.915569305 201.983535767
365 1 0.0 0.0 18.480730057 120.668296814
366 1 0.0 0.0 18.480730057 148.932937622
367 1 0.0 0.0 18.480730057 177.19758606
368 1 0.0 0.0 18.480730057 205.462234497
369 1 0.0 0.0 18.045888901 124.147018433
370 1 0.0 0.0 18.045888901 152.41166687
371 1 0.0 0.0 18.045888901 180.676315308
372 1 0.0 0.0 18.045888901 208.940963745
373 1 0.0 0.0 17.611047745 127.625747681
374 1 0.0 0.0 17.611047745 155.890396118
375 1 0.0 0.0 17.611047745 184.155044556
376 1 0.0 0.0 17.611047745 212.419692993
377 1 0.0 0.0 17.176208496 131.104476929
378 1 0.0 0.0 17.176208496 159.369125366
379 1 0.0 0.0 17.176208496 187.633773804
380 1 0.0 0.0 17.176208496 215.898422241
381 1 0.0 0.0 16.74136734 134.583190918
382 1 0.0 0.0 16.74136734 162.847839355
383 1 0.0 0.0 16.74136734 191.112487793
384 1 0.0 0.0 16.74136734 219.37713623
385 1 0.0 0.0 16.306526184 138.061920166
386 1 0.0 0.0 16.306526184 166.326568604
387 1 0.0 0.0 16.306526184 194.591217041
388 1 0.0 0.0 16.306526184 222.855865479
389 1 0.0 0.0 15.871685028 113.276000977
390 1 0.0 0.0 15.871685028 141.540649414
391 1 0.0 0.0 15.871685028 169.805297852
392 1 0.0 0.0 15.871685028 198.069946289
393 1 0.0 0.0 15.436844826 116.754730225
394 1 0.0 0.0 15.436844826 145.019378662
395 1 0.0 0.0 15.436844826 173.2840271
396 1 0.0 0.0 15.436844826 201.548675537
397 1 0.0 0.0 15.00200367 120.233451843
398 1 0.0 0.0 15.00200367 148.498092651
399 1 0.0 0.0 15.00200367 176.762741089
400 1 0.0 0.0 15.00200367 205.027389526
401 1 0.0 0.0 14.567165375 123.712181091
402 1 0.0 0.0 14.567165375 151.976821899
403 1 0.0 0.0 14.567165375 180.241455078
404 1 0.0 0.0 14.567165375 208.506103516
405 1 0.0 0.0 14.132323265 127.19090271
406 1 0.0 0.0 14.132323265 155.455551147
407 1 0.0 0.0 14.132323265 183.720199585
408 1 0.0 0.0 14.132323265 211.984848022
409 1 0.0 0.0 13.697482109 130.669631958
410 1 0.0 0.0 13.697482109 158.934280396
411 1 0.0 0.0 13.697482109 187.198944092
412 1 0.0 0.0 13.697482109 215.463592529
413 1 0.0 0.0 13.262641907 134.148376465
414 1 0.0 0.0 13.262641907 162.413024902
415 1 0.0 0.0 13.262641907 190.67767334
416 1 0.0 0.0 13.262641907 218.942321777
417 1 0.0 0.0 12.827800751 137.627075195
418 1 0.0 0.0 12.827800751 165.891723633
419 1 0.0 0.0 12.827800751 194.15637207
420 1 0.0 0.0 12.827800751 222.421020508
421 1 0.0 0.0 12.392960548 141.105804443
422 1 0.0 0.0 12.392960548 169.370452881
423 1 0.0 0.0 12.392960548 197.635101318
424 1 0.0 0.0 12.392960548 225.899749756
425 1 0.0 0.0 11.958119392 116.319885254
426 1 0.0 0.0 11.958119392 144.584533691
427 1 0.0 0.0 11.958119392 172.849182129
428 1 0.0 0.0 11.958119392 201.113830566
429 1 0.0 0.0 11.523275375 119.798606873
430 1 0.0 0.0 11.523275375 148.063262939
431 1 0.0 0.0 11.523275375 176.327911377
432 1 0.0 0.0 11.523275375 204.592559814
433 1 0.0 0.0 11.08843708 123.277336121
434 1 0.0 0.0 11.08843708 151.541992188
435 1 0.0 0.0 11.08843708 179.806640625
436 1 0.0 0.0 11.08843708 208.071289063
437 1 0.0 0.0 10.653595924 126.756065369
438 1 0.0 0.0 10.653595924 155.020706177
439 1 0.0 0.0 10.653595924 183.285354614
440 1 0.0 0.0 10.653595924 211.550003052
441 1 0.0 0.0 10.218754768 130.234786987
442 1 0.0 0.0 10.218754768 158.499435425
443 1 0.0 0.0 10.218754768 186.764083862
444 1 0.0 0.0 10.218754768 215.0287323
445 1 0.0 0.0 9.783914566 133.713516235
446 1 0.0 0.0 9.783914566 161.978164673
447 1 0.0 0.0 9.783914566 190.24281311
448 1 0.0 0.0 9.783914566 218.507461548
449 1 0.0 0.0 9.34907341 137.192230225
450 1 0.0 0.0 9.34907341 165.456878662
451 1 0.0 0.0 9.34907341 193.7215271
452 1 0.0 0.0 9.34907341 221.986175537
453 1 0.0 0.0 8.914233208 140.670959473
454 1 0.0 0.0 8.914233208 168.93560791
455 1 0.0 0.0 8.914233208 197.200256348
456 1 0.0 0.0 8.914233208 225.464904785
457 1 0.0 0.0 8.479392052 115.885040283
458 1 0.0 0.0 8.479392052 144.149688721
459 1 0.0 0.0 8.479392052 172.414337158
460 1 0.0 0.0 8.479392052 200.678985596
461 1 0.0 0.0 8.044551849 119.363769531
462 1 0.0 0.0 8.044551849 147.628417969
463 1 0.0 0.0 8.044551849 175.893066406
464 1 0.0 0.0 8.044551849 204.157714844
465 1 0.0 0.0 7.609712601 122.84249115
466 1 0.0 0.0 7.609712601 151.107147217
467 1 0.0 0.0 7.609712601 179.371795654
468 1 0.0 0.0 7.609712601 207.636444092
469 1 0.0 0.0 7.174870014 126.321220398
470 1 0.0 0.0 7.174870014 154.585861206
471 1 0.0 0.0 7.174870014 182.850509644
472 1 0.0 0.0 7.174870014 211.115158081
473 1 0.0 0.0 6.740029812 129.799957275
474 1 0.0 0.0 6.740029812 158.064605713
475 1 0.0 0.0 6.740029812 186.32925415
476 1 0.0 0.0 6.740029812 214.593902588
477 1 0.0 0.0 6.305189133 133.278671265
478 1 0.0 0.0 6.305189133 161.543319702
479 1 0.0 0.0 6.305189133 189.80796814
480 1 0.0 0.0 6.305189133 218.072616577
481 1 0.0 0.0 5.870346546 136.757400513
482 1 0.0 0.0 5.870346546 165.022079468
483 1 0.0 0.0 5.870346546 193.286727905
484 1 0.0 0.0 5.870346546 221.551376343
485 1 0.0 0.0 5.435507774 140.236129761
486 1 0.0 0.0 5.435507774 168.500778198
487 1 0.0 0.0 5.435507774 196.765426636
488 1 0.0 0.0 5.435507774 225.030075073
489 1 0.0 0.0 5.000667095 115.450202942
490 1 0.0 0.0 5.000667095 143.71484375
491 1 0.0 0.0 5.000667095 171.979507446
492 1 0.0 0.0 5.000667095 200.244155884
493 1 0.0 0.0 4.565826416 118.928924561
494 1 0.0 0.0 4.565826416 147.193572998
495 1 0.0 0.0 4.565826416 175.458221436
496 1 0.0 0.0 4.565826416 203.722869873
497 1 0.0 0.0 4.130986214 122.407653809
498 1 0.0 0.0 4.130986214 150.672317505
499 1 0.0 0.0 4.130986214 178.936965942
500 1 0.0 0.0 4.130986214 207.20161438
501 1 0.0 0.0 3.696144819 125.886375427
502 1 0.0 0.0 3.696144819 154.151046753
503 1 0.0 0.0 3.696144819 182.41569519
504 1 0.0 0.0 3.696144819 210.680343628
505 1 0.0 0.0 3.261304379 129.365112305
506 1 0.0 0.0 3.261304379 157.629760742
507 1 0.0 0.0 3.261304379 185.89440918
508 1 0.0 0.0 3.261304379 214.159057617
509 1 0.0 0.0 2.826463699 132.843826294
510 1 0.0 0.0 2.826463699 161.108474731
511 1 0.0 0.0 2.826463699 189.373123169
512 1 0.0 0.0 2.826463699 217.637771606
513 1 0.0 0.0 2.39162302 136.322570801
514 1 0.0 0.0 2.39162302 164.587219238
515 1 0.0 0.0 2.39162302 192.851867676
516 1 0.0 0.0 2.39162302 221.116516113
517 1 0.0 0.0 1.956783891 139.80128479
518 1 0.0 0.0 1.956783891 168.065933228
519 1 0.0 0.0 1.956783891 196.330581665
520 1 0.0 0.0 1.956783891 224.595230103
521 1 0.0 1.752898932 28.047225952 114.797950745
522 1 0.0 1.752898932 28.047225952 143.062591553
523 1 0.0 1.752898932 28.047225952 171.32723999
524 1 0.0 1.752898932 28.047225952 199.591888428
525 1 0.0 1.752898932 3.261304379 115.232780457
526 1 0.0 1.752898932 3.261304379 143.497436523
527 1 0.0 1.752898932 3.261304379 171.762084961
528 1 0.0 1.752898932 3.261304379 200.026733398
529 1 0.0 1.752898932 2.826463699 118.711502075
530 1 0.0 1.752898932 2.826463699 146.976150513
531 1 0.0 1.752898932 2.826463699 175.24079895
532 1 0.0 1.752898932 2.826463699 203.505447388
533 1 0.0 1.752898932 2.39162302 122.190231323
534 1 0.0 1.752898932 2.39162302 150.45489502
535 1 0.0 1.752898932 2.39162302 178.719543457
536 1 0.0 1.752898932 2.39162302 206.984191895
537 1 0.0 1.752898932 1.956783891 125.668952942
538 1 0.0 1.752898932 1.956783891 153.933609009
539 1 0.0 1.752898932 1.956783891 182.198257446
540 1 0.0 1.752898932 1.956783891 210.462905884
541 1 0.0 1.752898932 1.521941543 129.147689819
542 1 0.0 1.752898932 1.521941543 157.412338257
543 1 0.0 1.752898932 1.521941543 185.676986694
544 1 0.0 1.752898932 1.521941543 213.941635132
545 1 0.0 1.752898932 1.087100863 132.626403809
546 1 0.0 1.752898932 1.087100863 160.891052246
547 1 0.0 1.752898932 1.087100863 189.155700684
548 1 0.0 1.752898932 1.087100863 217.420349121
549 1 0.0 1.752898932 0.652260184 136.105148315
550 1 0.0 1.752898932 0.652260184 164.369796753
551 1 0.0 1.752898932 0.652260184 192.63444519
552 1 0.0 1.752898932 0.652260184 220.899093628
553 1 0.0 1.752898932 0.217417821 139.583862305
554 1 0.0 1.752898932 0.217417821 167.848510742
555 1 0.0 1.752898932 0.217417821 196.11315918
556 1 0.0 1.752898932 0.217417821 224.377807617
557 1 0.0 1.752898932 27.612384796 118.276672363
558 1 0.0 1.752898932 27.612384796 146.541305542
559 1 0.0 1.752898932 27.612384796 174.805953979
560 1 0.0 1.752898932 27.612384796 203.070602417
561 1 0.0 1.752898932 27.17754364 121.755401611
562 1 0.0 1.752898932 27.17754364 150.020050049
563 1 0.0 1.752898932 27.17754364 178.284698486
564 1 0.0 1.752898932 27.17754364 206.549346924
565 1 0.0 1.752898932 26.742702484 125.234130859
566 1 0.0 1.752898932 26.742702484 153.498764038
567 1 0.0 1.752898932 26.742702484 181.763412476
568 1 0.0 1.752898932 26.742702484 210.028060913
569 1 0.0 1.752898932 26.307863235 128.712860107
570 1 0.0 1.752898932 26.307863235 156.977508545
571 1 0.0 1.752898932 26.307863235 185.242156982
572 1 0.0 1.752898932 26.307863235 213.50680542
573 1 0.0 1.752898932 25.873022079 132.191574097
574 1 0.0 1.752898932 25.873022079 160.456207275
575 1 0.0 1.752898932 25.873022079 188.720855713
576 1 0.0 1.752898932 25.873022079 216.98550415
577 1 0.0 1.752898932 25.438180923 135.670303345
578 1 0.0 1.752898932 25.438180923 163.934951782
579 1 0.0 1.752898932 25.438180923 192.19960022
580 1 0.0 1.752898932 25.438180923 220.464248657
581 1 0.0 1.752898932 25.003339767 139.149032593
582 1 0.0 1.752898932 25.003339767 167.413665771
583 1 0.0 1.752898932 25.003339767 195.678314209
584 1 0.0 1.752898932 25.003339767 223.942962646
585 1 0.0 1.752898932 24.568502426 114.363105774
586 1 0.0 1.752898932 24.568502426 142.627746582
587 1 0.0 1.752898932 24.568502426 170.89239502
588 1 0.0 1.752898932 24.568502426 199.157043457
589 1 0.0 1.752898932 24.133659363 117.841835022
590 1 0.0 1.752898932 24.133659363 146.10647583
591 1 0.0 1.752898932 24.133659363 174.371109009
592 1 0.0 1.752898932 24.133659363 202.635757446
593 1 0.0 1.752898932 23.698818207 121.320556641
594 1 0.0 1.752898932 23.698818207 149.585205078
595 1 0.0 1.752898932 23.698818207 177.849853516
596 1 0.0 1.752898932 23.698818207 206.114501953
597 1 0.0 1.752898932 23.263977051 124.799285889
598 1 0.0 1.752898932 23.263977051 153.063934326
599 1 0.0 1.752898932 23.263977051 181.328582764
600 1 0.0 1.752898932 23.263977051 209.593231201
601 1 0.0 1.752898932 22.829137802 128.278015137
602 1 0.0 1.752898932 22.829137802 156.542663574
603 1 0.0 1.752898932 22.829137802 184.807312012
604 1 0.0 1.752898932 22.829137802 213.071960449
605 1 0.0 1.752898932 22.394296646 131.756729126
606 1 0.0 1.752898932 22.394296646 160.021377563
607 1 0.0 1.752898932 22.394296646 188.286026001
608 1 0.0 1.752898932 22.394296646 216.550674438
609 1 0.0 1.752898932 21.95945549 135.235458374
610 1 0.0 1.752898932 21.95945549 163.500106812
611 1 0.0 1.752898932 21.95945549 191.764755249
612 1 0.0 1.752898932 21.95945549 220.029403687
613 1 0.0 1.752898932 21.524614334 138.714187622
614 1 0.0 1.752898932 21.524614334 166.97883606
615 1 0.0 1.752898932 21.524614334 195.243484497
616 1 0.0 1.752898932 21.524614334 223.508132935
617 1 0.0 1.752898932 21.089773178 113.928268433
618 1 0.0 1.752898932 21.089773178 142.19291687
619 1 0.0 1.752898932 21.089773178 170.457565308
620 1 0.0 1.752898932 21.089773178 198.722213745
621 1 0.0 1.752898932 20.654933929 117.406990051
622 1 0.0 1.752898932 20.654933929 145.671646118
623 1 0.0 1.752898932 20.654933929 173.936294556
624 1 0.0 1.752898932 20.654933929 202.200942993
625 1 0.0 1.752898932 20.220092773 120.885719299
626 1 0.0 1.752898932 20.220092773 149.150360107
627 1 0.0 1.752898932 20.220092773 177.415008545
628 1 0.0 1.752898932 20.220092773 205.679656982
629 1 0.0 1.752898932 19.785251617 124.364440918
630 1 0.0 1.752898932 19.785251617 152.629089355
631 1 0.0 1.752898932 19.785251617 180.893737793
632 1 0.0 1.752898932 19.785251617 209.15838623
633 1 0.0 1.752898932 19.350410461 127.843170166
634 1 0.0 1.752898932 19.350410461 156.107818604
635 1 0.0 1.752898932 19.350410461 184.372467041
636 1 0.0 1.752898932 19.350410461 212.637115479
637 1 0.0 1.752898932 18.915569305 131.321914673
638 1 0.0 1.752898932 18.915569305 159.58656311
639 1 0.0 1.752898932 18.915569305 187.851211548
640 1 0.0 1.752898932 18.915569305 216.115859985
641 1 0.0 1.752898932 18.480730057 134.800613403
642 1 0.0 1.752898932 18.480730057 163.065261841
643 1 0.0 1.752898932 18.480730057 191.329910278
644 1 0.0 1.752898932 18.480730057 219.594558716
645 1 0.0 1.752898932 18.045888901 138.279342651
646 1 0.0 1.752898932 18.045888901 166.543991089
647 1 0.0 1.752898932 18.045888901 194.808639526
648 1 0.0 1.752898932 18.045888901 223.073287964
649 1 0.0 1.752898932 17.611047745 113.493423462
650 1 0.0 1.752898932 17.611047745 141.758071899
651 1 0.0 1.752898932 17.611047745 170.022720337
652 1 0.0 1.752898932 17.611047745 198.287368774
653 1 0.0 1.752898932 17.176208496 116.972145081
654 1 0.0 1.752898932 17.176208496 145.236801147
655 1 0.0 1.752898932 17.176208496 173.501449585
656 1 0.0 1.752898932 17.176208496 201.766098022
657 1 0.0 1.752898932 16.74136734 120.450874329
658 1 0.0 1.752898932 16.74136734 148.715515137
659 1 0.0 1.752898932 16.74136734 176.980163574
660 1 0.0 1.752898932 16.74136734 205.244812012
661 1 0.0 1.752898932 16.306526184 123.929603577
662 1 0.0 1.752898932 16.306526184 152.194244385
663 1 0.0 1.752898932 16.306526184 180.458892822
664 1 0.0 1.752898932 16.306526184 208.72354126
665 1 0.0 1.752898932 15.871685028 127.408325195
666 1 0.0 1.752898932 15.871685028 155.672973633
667 1 0.0 1.752898932 15.871685028 183.93762207
668 1 0.0 1.752898932 15.871685028 212.202270508
669 1 0.0 1.752898932 15.436844826 130.887054443
670 1 0.0 1.752898932 15.436844826 159.151702881
671 1 0.0 1.752898932 15.436844826 187.416351318
672 1 0.0 1.752898932 15.436844826 215.680999756
673 1 0.0 1.752898932 15.00200367 134.365768433
674 1 0.0 1.752898932 15.00200367 162.63041687
675 1 0.0 1.752898932 15.00200367 190.895065308
676 1 0.0 1.752898932 15.00200367 219.159713745
677 1 0.0 1.752898932 14.567165375 137.844497681
678 1 0.0 1.752898932 14.567165375 166.109146118
679 1 0.0 1.752898932 14.567165375 194.373779297
680 1 0.0 1.752898932 14.567165375 222.638427734
681 1 0.0 1.752898932 14.132323265 113.058586121
682 1 0.0 1.752898932 14.132323265 141.323226929
683 1 0.0 1.752898932 14.132323265 169.587875366
684 1 0.0 1.752898932 14.132323265 197.852523804
685 1 0.0 1.752898932 13.697481155 116.537307739
686 1 0.0 1.752898932 13.697481155 144.801956177
687 1 0.0 1.752898932 13.697481155 173.066604614
688 1 0.0 1.752898932 13.697481155 201.331268311
689 1 0.0 1.752898932 13.262639999 120.016029358