# Interface_ceria_111_defective-100_H2O-Silica_gel_40%
        8229  atoms
           4  atom types
 
      0.000000000000      45.914000000000  xlo xhi
      0.000000000000      39.763000000000  ylo yhi
      0.000000000000     120.000000000000  zlo zhi
 
Masses
 
            1   15.99900000             # O
            2   140.11600000            # Ce
            3   1.00800000              # H
            4   28.08500000             # Si
 
Atoms # charge
 
         1    1   0.000000       32.523000000000      28.718000000000     100.248000000000
         2    1   0.000000       32.523000000000       2.209000000000     100.248000000000
         3    1   0.000000       32.523000000000      15.463000000000     100.248000000000
         4    1   0.000000       44.001000000000      28.718000000000     100.248000000000
         5    1   0.000000       44.001000000000       2.209000000000     100.248000000000
         6    1   0.000000       44.001000000000      15.463000000000     100.248000000000
         7    1   0.000000        9.565000000000      28.718000000000     100.248000000000
         8    1   0.000000        9.565000000000       2.209000000000     100.248000000000
         9    1   0.000000        9.565000000000      15.463000000000     100.248000000000
        10    1   0.000000       21.044000000000      28.718000000000     100.248000000000
        11    1   0.000000       21.044000000000       2.209000000000     100.248000000000
        12    1   0.000000       21.044000000000      15.463000000000     100.248000000000
        13    1   0.000000       30.610000000000      32.031000000000     100.248000000000
        14    1   0.000000       30.610000000000       5.523000000000     100.248000000000
        15    1   0.000000       30.610000000000      18.777000000000     100.248000000000
        16    1   0.000000       42.088000000000      32.031000000000     100.248000000000
        17    1   0.000000       42.088000000000       5.523000000000     100.248000000000
        18    1   0.000000       42.088000000000      18.777000000000     100.248000000000
        19    1   0.000000        7.652000000000      32.031000000000     100.248000000000
        20    1   0.000000        7.652000000000       5.523000000000     100.248000000000
        21    1   0.000000        7.652000000000      18.777000000000     100.248000000000
        22    1   0.000000       19.131000000000      32.031000000000     100.248000000000
        23    1   0.000000       19.131000000000       5.523000000000     100.248000000000
        24    1   0.000000       19.131000000000      18.777000000000     100.248000000000
        25    1   0.000000       36.349000000000      28.718000000000     100.248000000000
        26    1   0.000000       36.349000000000       2.209000000000     100.248000000000
        27    1   0.000000       36.349000000000      15.463000000000     100.248000000000
        28    1   0.000000        1.913000000000      28.718000000000     100.248000000000
        29    1   0.000000        1.913000000000       2.209000000000     100.248000000000
        30    1   0.000000        1.913000000000      15.463000000000     100.248000000000
        31    1   0.000000       13.392000000000      28.718000000000     100.248000000000
        32    1   0.000000       13.392000000000       2.209000000000     100.248000000000
        33    1   0.000000       13.392000000000      15.463000000000     100.248000000000
        34    1   0.000000       24.870000000000      28.718000000000     100.248000000000
        35    1   0.000000       24.870000000000       2.209000000000     100.248000000000
        36    1   0.000000       24.870000000000      15.463000000000     100.248000000000
        37    1   0.000000       34.436000000000      32.031000000000     100.248000000000
        38    1   0.000000       34.436000000000       5.523000000000     100.248000000000
        39    1   0.000000       34.436000000000      18.777000000000     100.248000000000
        40    1   0.000000        0.000000000000      32.031000000000     100.248000000000
        41    1   0.000000        0.000000000000       5.523000000000     100.248000000000
        42    1   0.000000        0.000000000000      18.777000000000     100.248000000000
        43    1   0.000000       11.479000000000      32.031000000000     100.248000000000
        44    1   0.000000       11.479000000000       5.523000000000     100.248000000000
        45    1   0.000000       11.479000000000      18.777000000000     100.248000000000
        46    1   0.000000       22.957000000000      32.031000000000     100.248000000000
        47    1   0.000000       22.957000000000       5.523000000000     100.248000000000
        48    1   0.000000       22.957000000000      18.777000000000     100.248000000000
        49    1   0.000000       32.523000000000      35.345000000000     100.248000000000
        50    1   0.000000       32.523000000000       8.836000000000     100.248000000000
        51    1   0.000000       32.523000000000      22.091000000000     100.248000000000
        52    1   0.000000       44.001000000000      35.345000000000     100.248000000000
        53    1   0.000000       44.001000000000       8.836000000000     100.248000000000
        54    1   0.000000       44.001000000000      22.091000000000     100.248000000000
        55    1   0.000000        9.565000000000      35.345000000000     100.248000000000
        56    1   0.000000        9.565000000000       8.836000000000     100.248000000000
        57    1   0.000000        9.565000000000      22.091000000000     100.248000000000
        58    1   0.000000       21.044000000000      35.345000000000     100.248000000000
        59    1   0.000000       21.044000000000       8.836000000000     100.248000000000
        60    1   0.000000       21.044000000000      22.091000000000     100.248000000000
        61    1   0.000000       30.610000000000      38.658000000000     100.248000000000
        62    1   0.000000       30.610000000000      12.150000000000     100.248000000000
        63    1   0.000000       30.610000000000      25.404000000000     100.248000000000
        64    1   0.000000       42.088000000000      38.658000000000     100.248000000000
        65    1   0.000000       42.088000000000      12.150000000000     100.248000000000
        66    1   0.000000       42.088000000000      25.404000000000     100.248000000000
        67    1   0.000000        7.652000000000      38.658000000000     100.248000000000
        68    1   0.000000        7.652000000000      12.150000000000     100.248000000000
        69    1   0.000000        7.652000000000      25.404000000000     100.248000000000
        70    1   0.000000       19.131000000000      38.658000000000     100.248000000000
        71    1   0.000000       19.131000000000      12.150000000000     100.248000000000
        72    1   0.000000       19.131000000000      25.404000000000     100.248000000000
        73    1   0.000000       28.697000000000      28.718000000000     100.248000000000
        74    1   0.000000       28.697000000000       2.209000000000     100.248000000000
        75    1   0.000000       28.697000000000      15.463000000000     100.248000000000
        76    1   0.000000       40.175000000000      28.718000000000     100.248000000000
        77    1   0.000000       40.175000000000       2.209000000000     100.248000000000
        78    1   0.000000       40.175000000000      15.463000000000     100.248000000000
        79    1   0.000000        5.739000000000      28.718000000000     100.248000000000
        80    1   0.000000        5.739000000000       2.209000000000     100.248000000000
        81    1   0.000000        5.739000000000      15.463000000000     100.248000000000
        82    1   0.000000       17.218000000000      28.718000000000     100.248000000000
        83    1   0.000000       17.218000000000       2.209000000000     100.248000000000
        84    1   0.000000       17.218000000000      15.463000000000     100.248000000000
        85    1   0.000000       38.262000000000      32.031000000000     100.248000000000
        86    1   0.000000       38.262000000000       5.523000000000     100.248000000000
        87    1   0.000000       38.262000000000      18.777000000000     100.248000000000
        88    1   0.000000        3.826000000000      32.031000000000     100.248000000000
        89    1   0.000000        3.826000000000       5.523000000000     100.248000000000
        90    1   0.000000        3.826000000000      18.777000000000     100.248000000000
        91    1   0.000000       15.305000000000      32.031000000000     100.248000000000
        92    1   0.000000       15.305000000000       5.523000000000     100.248000000000
        93    1   0.000000       15.305000000000      18.777000000000     100.248000000000
        94    1   0.000000       26.783000000000      32.031000000000     100.248000000000
        95    1   0.000000       26.783000000000       5.523000000000     100.248000000000
        96    1   0.000000       26.783000000000      18.777000000000     100.248000000000
        97    1   0.000000       36.349000000000      35.345000000000     100.248000000000
        98    1   0.000000       36.349000000000       8.836000000000     100.248000000000
        99    1   0.000000       36.349000000000      22.091000000000     100.248000000000
       100    1   0.000000        1.913000000000      35.345000000000     100.248000000000
       101    1   0.000000        1.913000000000       8.836000000000     100.248000000000
       102    1   0.000000        1.913000000000      22.091000000000     100.248000000000
       103    1   0.000000       13.392000000000      35.345000000000     100.248000000000
       104    1   0.000000       13.392000000000       8.836000000000     100.248000000000
       105    1   0.000000       13.392000000000      22.091000000000     100.248000000000
       106    1   0.000000       24.870000000000      35.345000000000     100.248000000000
       107    1   0.000000       24.870000000000       8.836000000000     100.248000000000
       108    1   0.000000       24.870000000000      22.091000000000     100.248000000000
       109    1   0.000000       34.436000000000      38.658000000000     100.248000000000
       110    1   0.000000       34.436000000000      12.150000000000     100.248000000000
       111    1   0.000000       34.436000000000      25.404000000000     100.248000000000
       112    1   0.000000        0.000000000000      38.658000000000     100.248000000000
       113    1   0.000000        0.000000000000      12.150000000000     100.248000000000
       114    1   0.000000        0.000000000000      25.404000000000     100.248000000000
       115    1   0.000000       11.479000000000      38.658000000000     100.248000000000
       116    1   0.000000       11.479000000000      12.150000000000     100.248000000000
       117    1   0.000000       11.479000000000      25.404000000000     100.248000000000
       118    1   0.000000       22.957000000000      38.658000000000     100.248000000000
       119    1   0.000000       22.957000000000      12.150000000000     100.248000000000
       120    1   0.000000       22.957000000000      25.404000000000     100.248000000000
       121    1   0.000000       28.697000000000      35.345000000000     100.248000000000
       122    1   0.000000       28.697000000000       8.836000000000     100.248000000000
       123    1   0.000000       28.697000000000      22.091000000000     100.248000000000
       124    1   0.000000       40.175000000000      35.345000000000     100.248000000000
       125    1   0.000000       40.175000000000       8.836000000000     100.248000000000
       126    1   0.000000       40.175000000000      22.091000000000     100.248000000000
       127    1   0.000000        5.739000000000      35.345000000000     100.248000000000
       128    1   0.000000        5.739000000000       8.836000000000     100.248000000000
       129    1   0.000000        5.739000000000      22.091000000000     100.248000000000
       130    1   0.000000       17.218000000000      35.345000000000     100.248000000000
       131    1   0.000000       17.218000000000       8.836000000000     100.248000000000
       132    1   0.000000       17.218000000000      22.091000000000     100.248000000000
       133    1   0.000000       38.262000000000      38.658000000000     100.248000000000
       134    1   0.000000       38.262000000000      12.150000000000     100.248000000000
       135    1   0.000000       38.262000000000      25.404000000000     100.248000000000
       136    1   0.000000        3.826000000000      38.658000000000     100.248000000000
       137    1   0.000000        3.826000000000      12.150000000000     100.248000000000
       138    1   0.000000        3.826000000000      25.404000000000     100.248000000000
       139    1   0.000000       15.305000000000      38.658000000000     100.248000000000
       140    1   0.000000       15.305000000000      12.150000000000     100.248000000000
       141    1   0.000000       15.305000000000      25.404000000000     100.248000000000
       142    1   0.000000       26.783000000000      38.658000000000     100.248000000000
       143    1   0.000000       26.783000000000      12.150000000000     100.248000000000
       144    1   0.000000       26.783000000000      25.404000000000     100.248000000000
       145    2   0.000000       38.262000000000      34.240000000000      99.467000000000
       146    2   0.000000       38.262000000000       7.732000000000      99.467000000000
       147    2   0.000000       38.262000000000      20.986000000000      99.467000000000
       148    2   0.000000        3.826000000000      34.240000000000      99.467000000000
       149    2   0.000000        3.826000000000       7.732000000000      99.467000000000
       150    2   0.000000        3.826000000000      20.986000000000      99.467000000000
       151    2   0.000000       15.305000000000      34.240000000000      99.467000000000
       152    2   0.000000       15.305000000000       7.732000000000      99.467000000000
       153    2   0.000000       15.305000000000      20.986000000000      99.467000000000
       154    2   0.000000       26.783000000000      34.240000000000      99.467000000000
       155    2   0.000000       26.783000000000       7.732000000000      99.467000000000
       156    2   0.000000       26.783000000000      20.986000000000      99.467000000000
       157    2   0.000000       36.349000000000      37.554000000000      99.467000000000
       158    2   0.000000       36.349000000000      11.045000000000      99.467000000000
       159    2   0.000000       36.349000000000      24.300000000000      99.467000000000
       160    2   0.000000        1.913000000000      37.554000000000      99.467000000000
       161    2   0.000000        1.913000000000      11.045000000000      99.467000000000
       162    2   0.000000        1.913000000000      24.300000000000      99.467000000000
       163    2   0.000000       13.392000000000      37.554000000000      99.467000000000
       164    2   0.000000       13.392000000000      11.045000000000      99.467000000000
       165    2   0.000000       13.392000000000      24.300000000000      99.467000000000
       166    2   0.000000       24.870000000000      37.554000000000      99.467000000000
       167    2   0.000000       24.870000000000      11.045000000000      99.467000000000
       168    2   0.000000       24.870000000000      24.300000000000      99.467000000000
       169    2   0.000000       38.262000000000      27.613000000000      99.467000000000
       170    2   0.000000       38.262000000000       1.104000000000      99.467000000000
       171    2   0.000000       38.262000000000      14.359000000000      99.467000000000
       172    2   0.000000        3.826000000000      27.613000000000      99.467000000000
       173    2   0.000000        3.826000000000       1.104000000000      99.467000000000
       174    2   0.000000        3.826000000000      14.359000000000      99.467000000000
       175    2   0.000000       15.305000000000      27.613000000000      99.467000000000
       176    2   0.000000       15.305000000000       1.104000000000      99.467000000000
       177    2   0.000000       15.305000000000      14.359000000000      99.467000000000
       178    2   0.000000       26.783000000000      27.613000000000      99.467000000000
       179    2   0.000000       26.783000000000       1.104000000000      99.467000000000
       180    2   0.000000       26.783000000000      14.359000000000      99.467000000000
       181    2   0.000000       36.349000000000      30.927000000000      99.467000000000
       182    2   0.000000       36.349000000000       4.418000000000      99.467000000000
       183    2   0.000000       36.349000000000      17.672000000000      99.467000000000
       184    2   0.000000        1.913000000000      30.927000000000      99.467000000000
       185    2   0.000000        1.913000000000       4.418000000000      99.467000000000
       186    2   0.000000        1.913000000000      17.672000000000      99.467000000000
       187    2   0.000000       13.392000000000      30.927000000000      99.467000000000
       188    2   0.000000       13.392000000000       4.418000000000      99.467000000000
       189    2   0.000000       13.392000000000      17.672000000000      99.467000000000
       190    2   0.000000       24.870000000000      30.927000000000      99.467000000000
       191    2   0.000000       24.870000000000       4.418000000000      99.467000000000
       192    2   0.000000       24.870000000000      17.672000000000      99.467000000000
       193    2   0.000000       34.436000000000      34.240000000000      99.467000000000
       194    2   0.000000       34.436000000000       7.732000000000      99.467000000000
       195    2   0.000000       34.436000000000      20.986000000000      99.467000000000
       196    2   0.000000        0.000000000000      34.240000000000      99.467000000000
       197    2   0.000000        0.000000000000       7.732000000000      99.467000000000
       198    2   0.000000        0.000000000000      20.986000000000      99.467000000000
       199    2   0.000000       11.479000000000      34.240000000000      99.467000000000
       200    2   0.000000       11.479000000000       7.732000000000      99.467000000000
       201    2   0.000000       11.479000000000      20.986000000000      99.467000000000
       202    2   0.000000       22.957000000000      34.240000000000      99.467000000000
       203    2   0.000000       22.957000000000       7.732000000000      99.467000000000
       204    2   0.000000       22.957000000000      20.986000000000      99.467000000000
       205    2   0.000000       32.523000000000      37.554000000000      99.467000000000
       206    2   0.000000       32.523000000000      11.045000000000      99.467000000000
       207    2   0.000000       32.523000000000      24.300000000000      99.467000000000
       208    2   0.000000       44.001000000000      37.554000000000      99.467000000000
       209    2   0.000000       44.001000000000      11.045000000000      99.467000000000
       210    2   0.000000       44.001000000000      24.300000000000      99.467000000000
       211    2   0.000000        9.565000000000      37.554000000000      99.467000000000
       212    2   0.000000        9.565000000000      11.045000000000      99.467000000000
       213    2   0.000000        9.565000000000      24.300000000000      99.467000000000
       214    2   0.000000       21.044000000000      37.554000000000      99.467000000000
       215    2   0.000000       21.044000000000      11.045000000000      99.467000000000
       216    2   0.000000       21.044000000000      24.300000000000      99.467000000000
       217    2   0.000000       30.610000000000      27.613000000000      99.467000000000
       218    2   0.000000       30.610000000000       1.104000000000      99.467000000000
       219    2   0.000000       30.610000000000      14.359000000000      99.467000000000
       220    2   0.000000       42.088000000000      27.613000000000      99.467000000000
       221    2   0.000000       42.088000000000       1.104000000000      99.467000000000
       222    2   0.000000       42.088000000000      14.359000000000      99.467000000000
       223    2   0.000000        7.652000000000      27.613000000000      99.467000000000
       224    2   0.000000        7.652000000000       1.104000000000      99.467000000000
       225    2   0.000000        7.652000000000      14.359000000000      99.467000000000
       226    2   0.000000       19.131000000000      27.613000000000      99.467000000000
       227    2   0.000000       19.131000000000       1.104000000000      99.467000000000
       228    2   0.000000       19.131000000000      14.359000000000      99.467000000000
       229    2   0.000000       28.697000000000      30.927000000000      99.467000000000
       230    2   0.000000       28.697000000000       4.418000000000      99.467000000000
       231    2   0.000000       28.697000000000      17.672000000000      99.467000000000
       232    2   0.000000       40.175000000000      30.927000000000      99.467000000000
       233    2   0.000000       40.175000000000       4.418000000000      99.467000000000
       234    2   0.000000       40.175000000000      17.672000000000      99.467000000000
       235    2   0.000000        5.739000000000      30.927000000000      99.467000000000
       236    2   0.000000        5.739000000000       4.418000000000      99.467000000000
       237    2   0.000000        5.739000000000      17.672000000000      99.467000000000
       238    2   0.000000       17.218000000000      30.927000000000      99.467000000000
       239    2   0.000000       17.218000000000       4.418000000000      99.467000000000
       240    2   0.000000       17.218000000000      17.672000000000      99.467000000000
       241    2   0.000000       34.436000000000      27.613000000000      99.467000000000
       242    2   0.000000       34.436000000000       1.104000000000      99.467000000000
       243    2   0.000000       34.436000000000      14.359000000000      99.467000000000
       244    2   0.000000        0.000000000000      27.613000000000      99.467000000000
       245    2   0.000000        0.000000000000       1.104000000000      99.467000000000
       246    2   0.000000        0.000000000000      14.359000000000      99.467000000000
       247    2   0.000000       11.479000000000      27.613000000000      99.467000000000
       248    2   0.000000       11.479000000000       1.104000000000      99.467000000000
       249    2   0.000000       11.479000000000      14.359000000000      99.467000000000
       250    2   0.000000       22.957000000000      27.613000000000      99.467000000000
       251    2   0.000000       22.957000000000       1.104000000000      99.467000000000
       252    2   0.000000       22.957000000000      14.359000000000      99.467000000000
       253    2   0.000000       32.523000000000      30.927000000000      99.467000000000
       254    2   0.000000       32.523000000000       4.418000000000      99.467000000000
       255    2   0.000000       32.523000000000      17.672000000000      99.467000000000
       256    2   0.000000       44.001000000000      30.927000000000      99.467000000000
       257    2   0.000000       44.001000000000       4.418000000000      99.467000000000
       258    2   0.000000       44.001000000000      17.672000000000      99.467000000000
       259    2   0.000000        9.565000000000      30.927000000000      99.467000000000
       260    2   0.000000        9.565000000000       4.418000000000      99.467000000000
       261    2   0.000000        9.565000000000      17.672000000000      99.467000000000
       262    2   0.000000       21.044000000000      30.927000000000      99.467000000000
       263    2   0.000000       21.044000000000       4.418000000000      99.467000000000
       264    2   0.000000       21.044000000000      17.672000000000      99.467000000000
       265    2   0.000000       30.610000000000      34.240000000000      99.467000000000
       266    2   0.000000       30.610000000000       7.732000000000      99.467000000000
       267    2   0.000000       30.610000000000      20.986000000000      99.467000000000
       268    2   0.000000       42.088000000000      34.240000000000      99.467000000000
       269    2   0.000000       42.088000000000       7.732000000000      99.467000000000
       270    2   0.000000       42.088000000000      20.986000000000      99.467000000000
       271    2   0.000000        7.652000000000      34.240000000000      99.467000000000
       272    2   0.000000        7.652000000000       7.732000000000      99.467000000000
       273    2   0.000000        7.652000000000      20.986000000000      99.467000000000
       274    2   0.000000       19.131000000000      34.240000000000      99.467000000000
       275    2   0.000000       19.131000000000       7.732000000000      99.467000000000
       276    2   0.000000       19.131000000000      20.986000000000      99.467000000000
       277    2   0.000000       28.697000000000      37.554000000000      99.467000000000
       278    2   0.000000       28.697000000000      11.045000000000      99.467000000000
       279    2   0.000000       28.697000000000      24.300000000000      99.467000000000
       280    2   0.000000       40.175000000000      37.554000000000      99.467000000000
       281    2   0.000000       40.175000000000      11.045000000000      99.467000000000
       282    2   0.000000       40.175000000000      24.300000000000      99.467000000000
       283    2   0.000000        5.739000000000      37.554000000000      99.467000000000
       284    2   0.000000        5.739000000000      11.045000000000      99.467000000000
       285    2   0.000000        5.739000000000      24.300000000000      99.467000000000
       286    2   0.000000       17.218000000000      37.554000000000      99.467000000000
       287    2   0.000000       17.218000000000      11.045000000000      99.467000000000
       288    2   0.000000       17.218000000000      24.300000000000      99.467000000000
       289    1   0.000000       36.349000000000      26.509000000000      98.686000000000
       290    1   0.000000       36.349000000000       0.000000000000      98.686000000000
       291    1   0.000000       36.349000000000      13.254000000000      98.686000000000
       292    1   0.000000        1.913000000000      26.509000000000      98.686000000000
       293    1   0.000000        1.913000000000       0.000000000000      98.686000000000
       294    1   0.000000        1.913000000000      13.254000000000      98.686000000000
       295    1   0.000000       13.392000000000      26.509000000000      98.686000000000
       296    1   0.000000       13.392000000000       0.000000000000      98.686000000000
       297    1   0.000000       13.392000000000      13.254000000000      98.686000000000
       298    1   0.000000       24.870000000000      26.509000000000      98.686000000000
       299    1   0.000000       24.870000000000       0.000000000000      98.686000000000
       300    1   0.000000       24.870000000000      13.254000000000      98.686000000000
       301    1   0.000000       28.697000000000      26.509000000000      98.686000000000
       302    1   0.000000       28.697000000000       0.000000000000      98.686000000000
       303    1   0.000000       28.697000000000      13.254000000000      98.686000000000
       304    1   0.000000       40.175000000000      26.509000000000      98.686000000000
       305    1   0.000000       40.175000000000       0.000000000000      98.686000000000
       306    1   0.000000       40.175000000000      13.254000000000      98.686000000000
       307    1   0.000000        5.739000000000      26.509000000000      98.686000000000
       308    1   0.000000        5.739000000000       0.000000000000      98.686000000000
       309    1   0.000000        5.739000000000      13.254000000000      98.686000000000
       310    1   0.000000       17.218000000000      26.509000000000      98.686000000000
       311    1   0.000000       17.218000000000       0.000000000000      98.686000000000
       312    1   0.000000       17.218000000000      13.254000000000      98.686000000000
       313    1   0.000000       32.523000000000      26.509000000000      98.686000000000
       314    1   0.000000       32.523000000000       0.000000000000      98.686000000000
       315    1   0.000000       32.523000000000      13.254000000000      98.686000000000
       316    1   0.000000       44.001000000000      26.509000000000      98.686000000000
       317    1   0.000000       44.001000000000       0.000000000000      98.686000000000
       318    1   0.000000       44.001000000000      13.254000000000      98.686000000000
       319    1   0.000000        9.565000000000      26.509000000000      98.686000000000
       320    1   0.000000        9.565000000000       0.000000000000      98.686000000000
       321    1   0.000000        9.565000000000      13.254000000000      98.686000000000
       322    1   0.000000       21.044000000000      26.509000000000      98.686000000000
       323    1   0.000000       21.044000000000       0.000000000000      98.686000000000
       324    1   0.000000       21.044000000000      13.254000000000      98.686000000000