# Interface_ceria_111__pristine_hydroxilated-100-H2O-Silica_gel_40%
 
        8485  atoms
           4  atom types
 
      0.000000000000      45.914000000000  xlo xhi
      0.000000000000      39.763000000000  ylo yhi
      0.000000000000     120.000000000000  zlo zhi
 
Masses
 
            1   15.99900000             # O
            2   140.11600000            # Ce
            3   1.00800000              # H
            4   28.08500000             # Si
 
Atoms # charge
 
         1    1   0.000000        7.458000000000      12.331000000000     101.584000000000
         2    1   0.000000        9.370000000000       9.014000000000     101.584000000000
         3    1   0.000000        3.631000000000      12.331000000000     101.584000000000
         4    1   0.000000       13.197000000000       9.015000000000     101.584000000000
         5    1   0.000000        5.544000000000       9.014000000000     101.583000000000
         6    1   0.000000       11.285000000000      12.331000000000     101.583000000000
         7    1   0.000000       45.718000000000      12.332000000000     101.583000000000
         8    1   0.000000        1.718000000000       9.014000000000     101.583000000000
         9    1   0.000000       41.892000000000      12.333000000000     101.583000000000
        10    1   0.000000       36.153000000000       9.017000000000     101.582000000000
        11    1   0.000000       39.979000000000       9.017000000000     101.582000000000
        12    1   0.000000       17.024000000000       9.015000000000     101.582000000000
        13    1   0.000000       38.065000000000      12.334000000000     101.582000000000
        14    1   0.000000       43.806000000000       9.015000000000     101.582000000000
        15    1   0.000000       15.112000000000      12.331000000000     101.582000000000
        16    1   0.000000        5.544000000000      15.648000000000     101.582000000000
        17    1   0.000000       15.109000000000       5.699000000000     101.582000000000
        18    1   0.000000       11.282000000000       5.698000000000     101.582000000000
        19    1   0.000000       32.326000000000       9.018000000000     101.582000000000
        20    1   0.000000       18.936000000000       5.700000000000     101.581000000000
        21    1   0.000000        9.371000000000      15.648000000000     101.581000000000
        22    1   0.000000       34.239000000000      12.335000000000     101.581000000000
        23    1   0.000000       20.849000000000       9.016000000000     101.581000000000
        24    1   0.000000        1.717000000000      15.648000000000     101.581000000000
        25    1   0.000000       28.500000000000       9.018000000000     101.581000000000
        26    1   0.000000       24.674000000000       9.017000000000     101.581000000000
        27    1   0.000000       22.762000000000       5.701000000000     101.581000000000
        28    1   0.000000        7.456000000000       5.698000000000     101.580000000000
        29    1   0.000000       30.414000000000       5.701000000000     101.580000000000
        30    1   0.000000       43.804000000000      15.649000000000     101.580000000000
        31    1   0.000000       34.241000000000       5.700000000000     101.580000000000
        32    1   0.000000       18.937000000000      12.332000000000     101.580000000000
        33    1   0.000000       26.588000000000       5.701000000000     101.580000000000
        34    1   0.000000       30.412000000000      12.335000000000     101.580000000000
        35    1   0.000000       17.022000000000       2.385000000000     101.580000000000
        36    1   0.000000       13.198000000000      15.648000000000     101.580000000000
        37    1   0.000000       39.977000000000      15.650000000000     101.579000000000
        38    1   0.000000        3.630000000000       5.698000000000     101.579000000000
        39    1   0.000000       38.067000000000       5.700000000000     101.579000000000
        40    1   0.000000       20.849000000000       2.386000000000     101.579000000000
        41    1   0.000000       26.586000000000      12.334000000000     101.579000000000
        42    1   0.000000       41.893000000000       5.699000000000     101.579000000000
        43    1   0.000000       45.719000000000       5.698000000000     101.579000000000
        44    1   0.000000       22.762000000000      12.333000000000     101.579000000000
        45    1   0.000000       36.151000000000      15.651000000000     101.578000000000
        46    1   0.000000       13.194000000000       2.384000000000     101.578000000000
        47    1   0.000000       17.024000000000      15.647000000000     101.578000000000
        48    1   0.000000       24.676000000000       2.386000000000     101.578000000000
        49    1   0.000000        3.629000000000      18.963000000000     101.577000000000
        50    1   0.000000        7.456000000000      18.963000000000     101.577000000000
        51    1   0.000000       32.325000000000      15.651000000000     101.577000000000
        52    1   0.000000       28.502000000000       2.385000000000     101.577000000000
        53    1   0.000000        9.367000000000       2.384000000000     101.576000000000
        54    1   0.000000       11.284000000000      18.963000000000     101.576000000000
        55    1   0.000000       18.935000000000      38.835000000000     101.576000000000
        56    1   0.000000       45.716000000000      18.964000000000     101.576000000000
        57    1   0.000000       28.499000000000      15.650000000000     101.576000000000
        58    1   0.000000       32.328000000000       2.385000000000     101.576000000000
        59    1   0.000000       20.849000000000      15.648000000000     101.576000000000
        60    1   0.000000       15.107000000000      38.834000000000     101.575000000000
        61    1   0.000000       24.674000000000      15.649000000000     101.575000000000
        62    1   0.000000       41.889000000000      18.965000000000     101.575000000000
        63    1   0.000000       22.763000000000      38.835000000000     101.575000000000
        64    1   0.000000       36.154000000000       2.384000000000     101.574000000000
        65    1   0.000000       15.111000000000      18.962000000000     101.574000000000
        66    1   0.000000        5.542000000000       2.383000000000     101.574000000000
        67    1   0.000000       39.980000000000       2.384000000000     101.574000000000
        68    1   0.000000       38.063000000000      18.966000000000     101.574000000000
        69    1   0.000000       43.805000000000       2.383000000000     101.573000000000
        70    1   0.000000        1.717000000000       2.383000000000     101.573000000000
        71    1   0.000000       26.590000000000      38.835000000000     101.573000000000
        72    1   0.000000       18.937000000000      18.962000000000     101.572000000000
        73    1   0.000000       11.279000000000      38.834000000000     101.572000000000
        74    1   0.000000       34.238000000000      18.966000000000     101.572000000000
        75    1   0.000000       17.021000000000      35.522000000000     101.572000000000
        76    1   0.000000        9.369000000000      22.277000000000     101.572000000000
        77    1   0.000000        5.542000000000      22.277000000000     101.572000000000
        78    1   0.000000       20.849000000000      35.522000000000     101.572000000000
        79    1   0.000000       22.762000000000      18.963000000000     101.571000000000
        80    1   0.000000       13.196000000000      22.276000000000     101.571000000000
        81    1   0.000000       30.412000000000      18.965000000000     101.571000000000
        82    1   0.000000       30.416000000000      38.834000000000     101.571000000000
        83    1   0.000000       26.587000000000      18.964000000000     101.571000000000
        84    1   0.000000        1.715000000000      22.278000000000     101.571000000000
        85    1   0.000000       17.022000000000      22.276000000000     101.570000000000
        86    1   0.000000       24.677000000000      35.522000000000     101.570000000000
        87    1   0.000000       13.192000000000      35.521000000000     101.570000000000
        88    1   0.000000        7.453000000000      38.833000000000     101.570000000000
        89    1   0.000000       43.802000000000      22.278000000000     101.570000000000
        90    1   0.000000       34.242000000000      38.834000000000     101.569000000000
        91    1   0.000000       18.934000000000      32.210000000000     101.569000000000
        92    1   0.000000       20.849000000000      22.275000000000     101.569000000000
        93    1   0.000000       39.976000000000      22.279000000000     101.568000000000
        94    1   0.000000       15.108000000000      25.588000000000     101.568000000000
        95    1   0.000000       38.067000000000      38.834000000000     101.568000000000
        96    1   0.000000       22.763000000000      32.211000000000     101.568000000000
        97    1   0.000000       15.106000000000      32.210000000000     101.568000000000
        98    1   0.000000       11.281000000000      25.589000000000     101.568000000000
        99    1   0.000000       24.675000000000      22.276000000000     101.568000000000
       100    1   0.000000        3.628000000000      38.833000000000     101.568000000000
       101    1   0.000000       18.935000000000      25.588000000000     101.568000000000
       102    1   0.000000       17.020000000000      28.899000000000     101.567000000000
       103    1   0.000000       36.151000000000      22.279000000000     101.567000000000
       104    1   0.000000       20.848000000000      28.899000000000     101.567000000000
       105    1   0.000000       28.504000000000      35.522000000000     101.567000000000
       106    1   0.000000       45.718000000000      38.833000000000     101.567000000000
       107    1   0.000000       41.893000000000      38.833000000000     101.567000000000
       108    1   0.000000        7.454000000000      25.589000000000     101.567000000000
       109    1   0.000000       22.762000000000      25.588000000000     101.567000000000
       110    1   0.000000       28.500000000000      22.277000000000     101.567000000000
       111    1   0.000000       32.326000000000      22.278000000000     101.566000000000
       112    1   0.000000        9.366000000000      35.522000000000     101.566000000000
       113    1   0.000000       13.193000000000      28.900000000000     101.566000000000
       114    1   0.000000       11.279000000000      32.210000000000     101.566000000000
       115    1   0.000000       24.676000000000      28.900000000000     101.566000000000
       116    1   0.000000        3.628000000000      25.590000000000     101.565000000000
       117    1   0.000000       26.590000000000      32.211000000000     101.565000000000
       118    1   0.000000       32.329000000000      35.522000000000     101.565000000000
       119    1   0.000000       26.589000000000      25.589000000000     101.565000000000
       120    1   0.000000        9.366000000000      28.900000000000     101.565000000000
       121    1   0.000000       45.716000000000      25.591000000000     101.564000000000
       122    1   0.000000        5.541000000000      35.521000000000     101.564000000000
       123    1   0.000000       41.890000000000      25.591000000000     101.563000000000
       124    1   0.000000       36.155000000000      35.522000000000     101.563000000000
       125    1   0.000000       30.414000000000      25.590000000000     101.563000000000
       126    1   0.000000        7.453000000000      32.211000000000     101.563000000000
       127    1   0.000000       38.065000000000      25.591000000000     101.563000000000
       128    1   0.000000       28.503000000000      28.900000000000     101.563000000000
       129    1   0.000000       30.416000000000      32.211000000000     101.563000000000
       130    1   0.000000        1.716000000000      35.521000000000     101.562000000000
       131    1   0.000000       34.240000000000      25.590000000000     101.562000000000
       132    1   0.000000        5.540000000000      28.901000000000     101.562000000000
       133    1   0.000000       39.980000000000      35.522000000000     101.562000000000
       134    1   0.000000       43.805000000000      35.521000000000     101.562000000000
       135    1   0.000000        1.715000000000      28.901000000000     101.561000000000
       136    1   0.000000       32.328000000000      28.901000000000     101.561000000000
       137    1   0.000000        3.628000000000      32.211000000000     101.561000000000
       138    1   0.000000       34.242000000000      32.212000000000     101.561000000000
       139    1   0.000000       43.804000000000      28.902000000000     101.560000000000
       140    1   0.000000       36.154000000000      28.901000000000     101.560000000000
       141    1   0.000000       39.979000000000      28.901000000000     101.560000000000
       142    1   0.000000       38.067000000000      32.212000000000     101.560000000000
       143    1   0.000000       45.717000000000      32.211000000000     101.560000000000
       144    1   0.000000       41.892000000000      32.211000000000     101.559000000000
       145    2   0.000000        9.371000000000      11.225000000000     100.862000000000
       146    2   0.000000        5.544000000000      11.225000000000     100.861000000000
       147    2   0.000000        1.718000000000      11.225000000000     100.861000000000
       148    2   0.000000       11.283000000000       7.909000000000     100.861000000000
       149    2   0.000000       13.198000000000      11.225000000000     100.861000000000
       150    2   0.000000        7.458000000000      14.541000000000     100.860000000000
       151    2   0.000000       39.979000000000      11.228000000000     100.860000000000
       152    2   0.000000       43.805000000000      11.227000000000     100.860000000000
       153    2   0.000000        3.631000000000      14.542000000000     100.860000000000
       154    2   0.000000       36.153000000000      11.229000000000     100.860000000000
       155    2   0.000000        7.457000000000       7.909000000000     100.860000000000
       156    2   0.000000       15.110000000000       7.910000000000     100.859000000000
       157    2   0.000000       34.240000000000       7.912000000000     100.859000000000
       158    2   0.000000       38.066000000000       7.912000000000     100.859000000000
       159    2   0.000000       45.718000000000      14.542000000000     100.859000000000
       160    2   0.000000        3.631000000000       7.909000000000     100.859000000000
       161    2   0.000000       30.413000000000       7.912000000000     100.859000000000
       162    2   0.000000       11.285000000000      14.542000000000     100.859000000000
       163    2   0.000000       32.326000000000      11.229000000000     100.859000000000
       164    2   0.000000       41.893000000000       7.911000000000     100.859000000000
       165    2   0.000000       45.719000000000       7.910000000000     100.858000000000
       166    2   0.000000       18.936000000000       7.910000000000     100.858000000000
       167    2   0.000000       17.024000000000      11.226000000000     100.858000000000
       168    2   0.000000       17.023000000000       4.595000000000     100.858000000000
       169    2   0.000000       41.891000000000      14.543000000000     100.858000000000
       170    2   0.000000       13.195000000000       4.594000000000     100.858000000000
       171    2   0.000000       26.587000000000       7.912000000000     100.857000000000
       172    2   0.000000       38.065000000000      14.544000000000     100.857000000000
       173    2   0.000000       22.762000000000       7.911000000000     100.857000000000
       174    2   0.000000       20.849000000000       4.595000000000     100.857000000000
       175    2   0.000000       15.111000000000      14.541000000000     100.857000000000
       176    2   0.000000       28.499000000000      11.229000000000     100.857000000000
       177    2   0.000000       20.849000000000      11.227000000000     100.856000000000
       178    2   0.000000       28.501000000000       4.596000000000     100.856000000000
       179    2   0.000000       24.674000000000      11.227000000000     100.856000000000
       180    2   0.000000       32.328000000000       4.596000000000     100.856000000000
       181    2   0.000000       24.675000000000       4.596000000000     100.856000000000
       182    2   0.000000        5.543000000000      17.857000000000     100.856000000000
       183    2   0.000000        9.369000000000       4.594000000000     100.856000000000
       184    2   0.000000       34.238000000000      14.545000000000     100.856000000000
       185    2   0.000000       15.108000000000       1.280000000000     100.855000000000
       186    2   0.000000        9.370000000000      17.857000000000     100.855000000000
       187    2   0.000000        1.716000000000      17.857000000000     100.855000000000
       188    2   0.000000       36.154000000000       4.596000000000     100.855000000000
       189    2   0.000000       18.936000000000       1.281000000000     100.855000000000
       190    2   0.000000       39.980000000000       4.595000000000     100.854000000000
       191    2   0.000000        5.543000000000       4.594000000000     100.854000000000
       192    2   0.000000       30.412000000000      14.544000000000     100.854000000000
       193    2   0.000000       18.937000000000      14.542000000000     100.854000000000
       194    2   0.000000       43.806000000000       4.594000000000     100.854000000000
       195    2   0.000000       13.198000000000      17.857000000000     100.854000000000
       196    2   0.000000       43.803000000000      17.858000000000     100.854000000000
       197    2   0.000000        1.717000000000       4.594000000000     100.853000000000
       198    2   0.000000       22.763000000000       1.282000000000     100.853000000000
       199    2   0.000000       26.586000000000      14.544000000000     100.853000000000
       200    2   0.000000       22.762000000000      14.543000000000     100.853000000000
       201    2   0.000000       39.977000000000      17.859000000000     100.852000000000
       202    2   0.000000       26.589000000000       1.281000000000     100.852000000000
       203    2   0.000000       11.281000000000       1.280000000000     100.852000000000
       204    2   0.000000       17.021000000000      37.731000000000     100.851000000000
       205    2   0.000000       17.024000000000      17.856000000000     100.851000000000
       206    2   0.000000       30.415000000000       1.281000000000     100.851000000000
       207    2   0.000000       36.151000000000      17.860000000000     100.851000000000
       208    2   0.000000       20.849000000000      37.731000000000     100.850000000000
       209    2   0.000000        3.629000000000      21.171000000000     100.850000000000
       210    2   0.000000        7.456000000000      21.171000000000     100.850000000000
       211    2   0.000000       32.325000000000      17.859000000000     100.849000000000
       212    2   0.000000       11.283000000000      21.171000000000     100.849000000000
       213    2   0.000000       34.241000000000       1.281000000000     100.849000000000
       214    2   0.000000        7.454000000000       1.280000000000     100.849000000000
       215    2   0.000000       13.193000000000      37.730000000000     100.849000000000
       216    2   0.000000       20.849000000000      17.857000000000     100.848000000000
       217    2   0.000000       28.499000000000      17.858000000000     100.848000000000
       218    2   0.000000       45.716000000000      21.172000000000     100.848000000000
       219    2   0.000000       24.677000000000      37.731000000000     100.848000000000
       220    2   0.000000       38.067000000000       1.281000000000     100.848000000000
       221    2   0.000000       24.674000000000      17.858000000000     100.848000000000
       222    2   0.000000       15.110000000000      21.171000000000     100.847000000000
       223    2   0.000000       41.893000000000       1.280000000000     100.847000000000
       224    2   0.000000       18.935000000000      34.418000000000     100.847000000000
       225    2   0.000000       41.890000000000      21.173000000000     100.847000000000
       226    2   0.000000        3.629000000000       1.280000000000     100.847000000000
       227    2   0.000000       45.718000000000       1.280000000000     100.847000000000
       228    2   0.000000       28.503000000000      37.731000000000     100.846000000000
       229    2   0.000000       18.936000000000      21.170000000000     100.846000000000
       230    2   0.000000       22.763000000000      34.419000000000     100.845000000000
       231    2   0.000000       15.107000000000      34.418000000000     100.845000000000
       232    2   0.000000       38.064000000000      21.173000000000     100.845000000000
       233    2   0.000000       13.195000000000      24.483000000000     100.845000000000
       234    2   0.000000        9.367000000000      37.731000000000     100.844000000000
       235    2   0.000000       22.762000000000      21.171000000000     100.844000000000
       236    2   0.000000        9.368000000000      24.484000000000     100.844000000000
       237    2   0.000000       17.021000000000      24.483000000000     100.844000000000
       238    2   0.000000       20.848000000000      31.107000000000     100.844000000000
       239    2   0.000000       34.238000000000      21.173000000000     100.844000000000
       240    2   0.000000       32.329000000000      37.731000000000     100.844000000000
       241    2   0.000000       17.020000000000      31.107000000000     100.843000000000
       242    2   0.000000        5.541000000000      24.485000000000     100.843000000000
       243    2   0.000000       26.587000000000      21.171000000000     100.843000000000
       244    2   0.000000       20.848000000000      24.483000000000     100.843000000000
       245    2   0.000000       30.413000000000      21.172000000000     100.843000000000
       246    2   0.000000       18.934000000000      27.795000000000     100.843000000000
       247    2   0.000000       15.107000000000      27.795000000000     100.843000000000
       248    2   0.000000       22.762000000000      27.795000000000     100.842000000000
       249    2   0.000000       11.280000000000      34.418000000000     100.842000000000
       250    2   0.000000       26.590000000000      34.419000000000     100.842000000000
       251    2   0.000000        1.715000000000      24.485000000000     100.842000000000
       252    2   0.000000        5.541000000000      37.730000000000     100.842000000000
       253    2   0.000000       24.675000000000      24.484000000000     100.842000000000
       254    2   0.000000       24.676000000000      31.107000000000     100.842000000000
       255    2   0.000000       13.193000000000      31.107000000000     100.841000000000
       256    2   0.000000       36.154000000000      37.731000000000     100.841000000000
       257    2   0.000000       11.280000000000      27.796000000000     100.841000000000
       258    2   0.000000       43.803000000000      24.485000000000     100.841000000000
       259    2   0.000000       39.980000000000      37.731000000000     100.840000000000
       260    2   0.000000        1.716000000000      37.730000000000     100.840000000000
       261    2   0.000000       43.805000000000      37.730000000000     100.840000000000
       262    2   0.000000       39.977000000000      24.486000000000     100.839000000000
       263    2   0.000000       28.501000000000      24.484000000000     100.839000000000
       264    2   0.000000       30.416000000000      34.419000000000     100.839000000000
       265    2   0.000000       26.589000000000      27.796000000000     100.839000000000
       266    2   0.000000        7.454000000000      27.796000000000     100.839000000000
       267    2   0.000000       36.152000000000      24.485000000000     100.839000000000
       268    2   0.000000        9.366000000000      31.107000000000     100.839000000000
       269    2   0.000000        7.454000000000      34.418000000000     100.838000000000
       270    2   0.000000       32.327000000000      24.485000000000     100.838000000000
       271    2   0.000000       28.503000000000      31.108000000000     100.838000000000
       272    2   0.000000        3.628000000000      27.797000000000     100.837000000000
       273    2   0.000000       34.242000000000      34.419000000000     100.837000000000
       274    2   0.000000       30.415000000000      27.797000000000     100.836000000000
       275    2   0.000000       45.717000000000      27.797000000000     100.836000000000
       276    2   0.000000        3.629000000000      34.418000000000     100.836000000000
       277    2   0.000000       38.067000000000      34.419000000000     100.836000000000
       278    2   0.000000       34.241000000000      27.797000000000     100.836000000000
       279    2   0.000000       32.329000000000      31.108000000000     100.835000000000
       280    2   0.000000        5.541000000000      31.108000000000     100.835000000000
       281    2   0.000000       41.891000000000      27.797000000000     100.835000000000
       282    2   0.000000       41.893000000000      34.419000000000     100.835000000000
       283    2   0.000000       45.718000000000      34.418000000000     100.835000000000
       284    2   0.000000       38.066000000000      27.797000000000     100.835000000000
       285    2   0.000000       36.154000000000      31.108000000000     100.834000000000
       286    2   0.000000        1.716000000000      31.108000000000     100.834000000000
       287    2   0.000000       39.980000000000      31.108000000000     100.834000000000
       288    2   0.000000       43.805000000000      31.108000000000     100.833000000000
       289    1   0.000000       11.284000000000      10.120000000000     100.075000000000
       290    1   0.000000        7.457000000000      10.120000000000     100.075000000000
       291    1   0.000000        5.544000000000      13.436000000000     100.075000000000
       292    1   0.000000        9.371000000000      13.436000000000     100.074000000000
       293    1   0.000000        3.631000000000      10.121000000000     100.074000000000
       294    1   0.000000        1.718000000000      13.437000000000     100.074000000000
       295    1   0.000000       38.066000000000      10.124000000000     100.074000000000
       296    1   0.000000       45.719000000000      10.122000000000     100.074000000000
       297    1   0.000000       34.239000000000      10.124000000000     100.074000000000
       298    1   0.000000       41.892000000000      10.123000000000     100.074000000000
       299    1   0.000000       15.110000000000      10.120000000000     100.074000000000
       300    1   0.000000       13.196000000000       6.805000000000     100.073000000000
       301    1   0.000000       43.804000000000      13.438000000000     100.073000000000
       302    1   0.000000       13.198000000000      13.436000000000     100.073000000000
       303    1   0.000000       17.022000000000       6.806000000000     100.073000000000
       304    1   0.000000        9.369000000000       6.805000000000     100.073000000000
       305    1   0.000000       39.978000000000      13.439000000000     100.073000000000
       306    1   0.000000       30.413000000000      10.124000000000     100.072000000000
       307    1   0.000000       32.326000000000       6.808000000000     100.072000000000
       308    1   0.000000       36.154000000000       6.808000000000     100.072000000000
       309    1   0.000000       36.152000000000      13.440000000000     100.072000000000
       310    1   0.000000       28.500000000000       6.808000000000     100.072000000000
       311    1   0.000000       18.936000000000      10.121000000000     100.071000000000
       312    1   0.000000       20.849000000000       6.806000000000     100.071000000000
       313    1   0.000000        5.543000000000       6.805000000000     100.071000000000
       314    1   0.000000       39.979000000000       6.807000000000     100.071000000000
       315    1   0.000000        7.457000000000      16.751000000000     100.071000000000
       316    1   0.000000        3.630000000000      16.752000000000     100.071000000000
       317    1   0.000000       15.109000000000       3.491000000000     100.071000000000
       318    1   0.000000       43.805000000000       6.806000000000     100.071000000000
       319    1   0.000000       24.673000000000       6.807000000000     100.071000000000
       320    1   0.000000        1.717000000000       6.805000000000     100.071000000000
       321    1   0.000000       26.585000000000      10.123000000000     100.071000000000
       322    1   0.000000       18.935000000000       3.492000000000     100.070000000000
       323    1   0.000000       32.326000000000      13.440000000000     100.070000000000
       324    1   0.000000       17.024000000000      13.436000000000     100.070000000000