# LAMMPS data file written by Ovito Basic 3.0.0-dev791
17283 atoms
6 atom types
0.0 150.0 xlo xhi
0.0 35.0 ylo yhi
0.0 35.0 zlo zhi

Masses

1 12.0107   # C
2  1.00797  # H
3 15.999    # O
4  6.941    # Li, (5 54.938045 # Mn)
5 18.998403 # F
6 30.973762 # P,  (8 58.6934   # Ni), (9 26.981539 # Al)

Atoms  # full

1 1 1 0.0 17.26461792 23.307840347 1.433153868
2 1 1 0.0 19.20936203 22.202283859 1.720721722
3 1 1 0.0 18.190876007 21.673524857 2.681379318
4 1 1 0.0 32.466400146 14.601210594 11.242806435
5 1 1 0.0 32.810688019 12.942038536 12.731291771
6 1 1 0.0 32.070178986 12.401946068 11.548195839
7 1 1 0.0 30.45913887 16.897319794 25.612031937
8 1 1 0.0 31.613180161 17.721229553 23.858085632
9 1 1 0.0 32.570800781 17.173183441 24.86920929
10 1 1 0.0 15.498826027 22.78527832 12.708216667
11 1 1 0.0 14.009284019 21.261831284 13.448052406
12 1 1 0.0 15.119603157 20.562044144 12.728851318
13 1 1 0.0 30.152608871 24.870252609 5.174026489
14 1 1 0.0 29.639127731 22.866092682 4.275884628
15 1 1 0.0 30.855287552 22.727384567 5.136980057
16 1 1 0.0 15.708154678 25.444803238 21.665912628
17 1 1 0.0 14.225768089 27.139223099 21.530075073
18 1 1 0.0 14.010095596 26.197965622 20.386713028
19 1 1 0.0 12.635684013 22.714006424 1.554094911
20 1 1 0.0 13.785470963 24.38756752 2.536014795
21 1 1 0.0 12.328780174 24.73028183 2.517134666
22 1 1 0.0 25.411310196 3.959623814 17.45763588
23 1 1 0.0 25.34478569 3.596739054 19.682689667
24 1 1 0.0 26.629611969 4.277759552 19.328872681
25 1 1 0.0 4.617607117 11.170482635 13.922424316
26 1 1 0.0 5.48721838 10.895802498 11.859585762
27 1 1 0.0 4.035497665 11.240811348 11.744531631
28 1 1 0.0 27.564804077 22.244123459 24.536481857
29 1 1 0.0 29.646995544 22.810817719 25.192466736
30 1 1 0.0 29.691335678 21.494541168 24.481678009
31 1 1 0.0 11.463705063 10.35677433 27.149093628
32 1 1 0.0 11.656276703 12.128762245 28.531106949
33 1 1 0.0 12.44547081 10.982190132 29.08093071
34 1 1 0.0 33.690292358 25.685914993 10.1695261
35 1 1 0.0 35.72687149 26.031324387 9.263973236
36 1 1 0.0 35.646274567 24.630737305 9.785146713
37 1 1 0.0 24.546562195 33.28704071 27.854127884
38 1 1 0.0 25.909128189 31.936231613 26.668498993
39 1 1 0.0 26.59982872 33.239467621 26.922008514
40 1 1 0.0 35.916156769 2.251700878 8.315573692
41 1 1 0.0 34.875164032 4.226658344 8.636292458
42 1 1 0.0 35.62140274 4.263542652 7.339550495
43 1 1 0.0 28.37928772 31.590795517 29.671453476
44 1 1 0.0 27.089767456 33.212215424 30.563135147
45 1 1 0.0 26.302928925 31.941942215 30.479188919
46 1 1 0.0 22.046936035 19.880731583 21.79375267
47 1 1 0.0 23.364625931 18.101387024 22.223402023
48 1 1 0.0 24.220174789 19.288812637 21.910648346
49 1 1 0.0 24.408599854 2.232448816 7.32588768
50 1 1 0.0 22.815420151 3.687791109 6.669577122
51 1 1 0.0 23.668563843 4.32616806 7.72047472
52 1 1 0.0 19.381132126 17.060567856 18.958152771
53 1 1 0.0 18.290307999 15.756325722 17.47625351
54 1 1 0.0 19.192270279 14.906842232 18.315656662
55 1 1 0.0 24.494138718 7.760843754 29.7754879
56 1 1 0.0 25.389123917 9.158622742 28.248336792
57 1 1 0.0 23.938138962 8.954080582 27.94408226
58 1 1 0.0 17.570501328 5.908655643 4.672623634
59 1 1 0.0 18.488986969 5.667375088 6.71838665
60 1 1 0.0 18.543312073 4.359813213 5.99237299
61 1 1 0.0 24.965629578 27.286001205 4.547213554
62 1 1 0.0 25.956289291 29.302459717 4.745880604
63 1 1 0.0 26.622493744 28.329051971 5.666976452
64 1 1 0.0 16.165035248 19.754230499 19.819192886
65 1 1 0.0 17.278957367 18.217172623 21.037227631
66 1 1 0.0 16.001537323 18.570709229 21.732191086
67 1 1 0.0 33.674190521 14.269735336 31.038858414
68 1 1 0.0 32.384189606 14.919548988 32.771095276
69 1 1 0.0 33.825881958 15.094349861 33.132663727
70 1 1 0.0 28.439291 24.493280411 7.147178173
71 1 1 0.0 26.633796692 24.147378922 5.840455532
72 1 1 0.0 26.786226273 23.000955582 6.790317535
73 1 1 0.0 6.994517326 1.626605868 28.876146317
74 1 1 0.0 7.45447731 3.150581837 27.278362274
75 1 1 0.0 8.11651516 1.853639841 26.932800293
76 1 1 0.0 19.41894722 18.04507637 28.336988449
77 1 1 0.0 18.78272438 20.158229828 27.871385574
78 1 1 0.0 19.81196785 20.177511215 28.957689285
79 1 1 0.0 9.104216576 29.389755249 16.278646469
80 1 1 0.0 9.701548576 27.220352173 16.124160767
81 1 1 0.0 9.25093174 27.513021469 17.520959854
82 1 1 0.0 32.022434235 5.7698493 10.912247658
83 1 1 0.0 30.873445511 7.643766403 11.417449951
84 1 1 0.0 29.923816681 6.596026897 10.927330971
85 1 1 0.0 28.715337753 10.650262833 23.851772308
86 1 1 0.0 29.019838333 10.040114403 26.001649857
87 1 1 0.0 28.59372139 8.848403931 25.202892303
88 1 1 0.0 20.34787178 29.199136734 13.583966255
89 1 1 0.0 20.888082504 29.880376816 15.6650877
90 1 1 0.0 20.182426453 30.988059998 14.947558403
91 1 1 0.0 15.959469795 5.923583508 16.053276062
92 1 1 0.0 13.859844208 5.399296761 15.417913437
93 1 1 0.0 14.836210251 4.597859383 14.615306854
94 1 1 0.0 12.022831917 26.923326492 4.93598175
95 1 1 0.0 13.472812653 26.191877365 6.50107336
96 1 1 0.0 12.092583656 25.72873497 6.847810745
97 1 1 0.0 4.127487659 32.262695313 6.114807606
98 1 1 0.0 4.598602772 32.953765869 4.020181179
99 1 1 0.0 5.860765457 32.514442444 4.693757057
100 1 1 0.0 20.593873978 33.700737 3.662463903
101 1 1 0.0 21.677520752 33.249523163 1.736563921
102 1 1 0.0 22.655241013 33.243412018 2.869606733
103 1 1 0.0 29.397125244 29.63098526 18.96103096
104 1 1 0.0 30.512147903 31.513914108 19.50718689
105 1 1 0.0 31.258712769 30.325998306 20.028015137
106 1 1 0.0 23.105741501 12.179833412 29.277578354
107 1 1 0.0 22.184778214 12.699226379 27.285335541
108 1 1 0.0 23.517648697 13.369057655 27.405925751
109 1 1 0.0 4.408998489 3.761971712 10.77052021
110 1 1 0.0 4.435651302 1.766092896 9.720407486
111 1 1 0.0 4.393624783 1.547932744 11.200407982
112 1 1 0.0 4.640975475 27.224998474 16.898527145
113 1 1 0.0 6.268879414 28.535589218 16.050432205
114 1 1 0.0 5.003745079 28.75507164 15.281651497
115 1 1 0.0 7.578562737 6.314231873 14.162978172
116 1 1 0.0 6.100743771 5.070789814 12.998124123
117 1 1 0.0 6.197704792 6.431910515 12.383541107
118 1 1 0.0 7.001490116 15.594295502 8.599554062
119 1 1 0.0 7.093501091 13.391383171 8.124483109
120 1 1 0.0 7.553544044 14.175351143 6.935569286
121 1 1 0.0 14.699486732 8.31522274 21.303123474
122 1 1 0.0 16.811113358 9.093513489 21.153858185
123 1 1 0.0 15.934224129 9.852327347 20.207796097
124 1 1 0.0 35.609466553 19.111423492 4.21638155
125 1 1 0.0 34.551528931 20.856266022 5.177248478
126 1 1 0.0 35.841182709 20.602323532 5.892847538
127 1 1 0.0 25.223592758 10.367918015 32.035564423
128 1 1 0.0 25.151157379 12.243391991 33.28629303
129 1 1 0.0 25.57806778 12.590864182 31.894613266
130 1 1 0.0 7.823307514 5.651071548 7.870358467
131 1 1 0.0 8.451683998 4.669686317 9.801422119
132 1 1 0.0 9.260784149 4.109873295 8.673713684
133 1 1 0.0 36.234966278 25.796445847 15.412302971
134 1 1 0.0 35.735889435 26.008272171 13.223006248
135 1 1 0.0 35.75907135 24.557279587 13.588846207
136 1 1 0.0 12.564353943 26.826501846 33.651931763
137 1 1 0.0 14.058760643 25.184295654 33.255840302
138 1 1 0.0 14.617111206 26.488954544 32.780578613
139 1 1 0.0 3.769048691 10.940217018 19.01499176
140 1 1 0.0 4.247971058 13.142617226 18.931045532
141 1 1 0.0 4.236888409 12.583636284 17.542814255
142 1 1 0.0 29.249902725 29.345617294 31.392835617
143 1 1 0.0 28.599477768 30.702091217 33.073284149
144 1 1 0.0 27.751667023 29.468816757 33.074237823
145 1 1 0.0 25.312259674 18.745153427 25.416776657
146 1 1 0.0 26.978487015 17.754230499 26.569482803
147 1 1 0.0 27.489009857 18.184835434 25.23018837
148 1 1 0.0 32.020011902 5.344191074 21.324668884
149 1 1 0.0 30.27889061 6.125029087 20.122268677
150 1 1 0.0 31.176929474 5.323663235 19.232826233
151 1 1 0.0 29.024461746 25.763757706 28.476388931
152 1 1 0.0 27.711025238 27.128679276 27.252109528
153 1 1 0.0 28.21978569 27.870580673 28.44814682
154 1 1 0.0 17.866096497 33.730495453 9.827427864
155 1 1 0.0 19.489988327 33.25295639 11.318036079
156 1 1 0.0 18.164970398 33.263786316 12.013718605
157 1 1 0.0 29.198152542 13.808217049 10.886209488
158 1 1 0.0 29.703317642 14.89810276 12.795119286
159 1 1 0.0 29.071123123 13.582764626 13.126754761
160 1 1 0.0 14.446772575 7.171310902 6.130862713
161 1 1 0.0 13.721593857 6.489246845 8.154689789
162 1 1 0.0 15.20310688 6.296309471 8.067183495
163 1 1 0.0 9.916173935 8.848808289 14.450716972
164 1 1 0.0 10.659393311 10.067558289 16.196926117
165 1 1 0.0 11.607405663 8.938329697 15.940256119
166 1 1 0.0 15.966441154 3.915432692 11.54682827
167 1 1 0.0 16.015657425 1.877814889 12.512576103
168 1 1 0.0 17.126312256 2.715656757 13.064143181
169 1 1 0.0 11.123249054 13.998394966 21.2648983
170 1 1 0.0 9.127913475 13.986783981 20.213479996
171 1 1 0.0 10.063396454 13.051480293 19.513593674
172 1 1 0.0 9.022429466 14.45099926 27.777532578
173 1 1 0.0 8.304101944 15.084922791 25.735685349
174 1 1 0.0 8.944091797 13.735466003 25.640035629
175 1 1 0.0 29.949699402 33.375431061 23.43038559
176 1 1 0.0 32.012081146 32.54650116 23.813058853
177 1 1 0.0 31.490724564 33.178504944 25.065465927
178 1 1 0.0 18.397180557 11.670563698 18.72713089
179 1 1 0.0 19.594209671 11.698801994 20.638492584
180 1 1 0.0 20.499578476 11.983681679 19.481376648
181 1 1 0.0 15.803674698 24.827783585 25.388246536
182 1 1 0.0 17.30150032 26.461378098 24.970079422
183 1 1 0.0 17.313501358 26.138940811 26.431465149
184 1 1 0.0 31.015184402 11.598475456 33.261474609
185 1 1 0.0 29.42965126 12.703186989 32.098430634
186 1 1 0.0 28.835042953 12.167393684 33.362995148
187 1 1 0.0 19.249507904 31.382652283 18.72259903
188 1 1 0.0 18.885353088 33.512413025 19.369504929
189 1 1 0.0 19.607704163 33.508228302 18.058797836
190 1 1 0.0 5.709214211 11.959068298 29.752252579
191 1 1 0.0 5.802770138 13.069856644 27.791543961
192 1 1 0.0 4.650743008 13.582074165 28.597909927
193 1 1 0.0 8.168767929 23.218608856 7.167476177
194 1 1 0.0 9.998221397 22.15376091 6.388904572
195 1 1 0.0 9.549563408 23.168771744 5.384801388
196 1 1 0.0 14.235234261 9.784028053 31.912805557
197 1 1 0.0 12.730792999 8.474820137 32.966186523
198 1 1 0.0 14.072366714 7.812185287 32.995540619
199 1 1 0.0 29.095237732 18.506599426 33.604827881
200 1 1 0.0 28.156778336 20.280628204 32.575702667
201 1 1 0.0 29.425352097 20.708478928 33.244606018
202 1 1 0.0 17.278175354 9.29782486 3.622230768
203 1 1 0.0 16.734010696 9.810026169 1.494199872
204 1 1 0.0 17.815536499 8.775583267 1.494903922
205 1 1 0.0 21.751853943 15.019946098 6.189017296
206 1 1 0.0 21.898324966 13.250683784 7.580146313
207 1 1 0.0 22.542802811 14.440172195 8.220094681
208 1 1 0.0 26.080513 1.376456857 17.642608643
209 1 1 0.0 28.183549881 2.042413712 17.172809601
210 1 1 0.0 27.36520195 2.06125474 15.919927597
211 1 1 0.0 9.800147057 12.404620171 13.470988274
212 1 1 0.0 11.850543976 12.023409843 12.612194061
213 1 1 0.0 11.059090614 12.859081268 11.655627251
214 1 1 0.0 4.89604044 18.157175064 13.852758408
215 1 1 0.0 5.925605297 17.65917778 11.908800125
216 1 1 0.0 6.587251663 18.848905563 12.530517578
217 1 1 0.0 9.80273819 7.401792526 24.193307877
218 1 1 0.0 8.750294685 5.490673542 24.765117645
219 1 1 0.0 10.03329277 5.598379612 25.528059006
220 1 1 0.0 32.074893951 3.569572687 26.033514023
221 1 1 0.0 30.381103516 3.016552687 24.650678635
222 1 1 0.0 31.253078461 1.820330739 24.870849609
223 1 1 0.0 16.704734802 24.337890625 17.822151184
224 1 1 0.0 16.200387955 22.541027069 16.555702209
225 1 1 0.0 17.180002213 23.404554367 15.824650764
226 1 1 0.0 4.76602602 14.553442001 24.181207657
227 1 1 0.0 4.71804142 15.325381279 22.06252861
228 1 1 0.0 5.940749168 14.484603882 22.257074356
229 1 1 0.0 17.358219147 13.434923172 15.365969658
230 1 1 0.0 19.57142067 13.093300819 15.097634315
231 1 1 0.0 18.931905746 13.280819893 13.757624626
232 1 1 0.0 15.545987129 1.270930886 33.048274994
233 1 1 0.0 14.579566002 1.74740994 31.066864014
234 1 1 0.0 13.537009239 1.747467756 32.140563965
235 1 1 0.0 35.880458832 24.929636002 19.306455612
236 1 1 0.0 35.734455109 22.859125137 20.188865662
237 1 1 0.0 34.548950195 23.109172821 19.310329437
238 1 1 0.0 4.085919857 8.031263351 9.664233208
239 1 1 0.0 5.707911015 9.01381588 8.443286896
240 1 1 0.0 4.449424267 9.816403389 8.334516525
241 1 1 0.0 3.787531614 31.282901764 12.390400887
242 1 1 0.0 4.249648571 33.275760651 11.440691948
243 1 1 0.0 4.336196423 32.199764252 10.404110909
244 1 1 0.0 5.532923222 29.984285355 1.947386861
245 1 1 0.0 4.751323223 27.906223297 1.55022192
246 1 1 0.0 4.550592422 28.244653702 2.994152784
247 1 1 0.0 11.031001091 17.590192795 28.259141922
248 1 1 0.0 11.720293045 16.058513641 26.753881454
249 1 1 0.0 12.640027046 17.238592148 26.718225479
250 1 1 0.0 33.938655853 30.106332779 22.342517853
251 1 1 0.0 35.55903244 31.673297882 22.265239716
252 1 1 0.0 35.559963226 30.894632339 20.98718071
253 1 1 0.0 4.538890362 17.494552612 30.57670784
254 1 1 0.0 5.568698406 18.793460846 29.047225952
255 1 1 0.0 6.403883934 17.579977036 29.311201096
256 1 1 0.0 28.091453552 9.491569519 9.961137772
257 1 1 0.0 27.887577057 10.416930199 12.007872581
258 1 1 0.0 27.438488007 8.99030304 12.060992241
259 1 1 0.0 36.180644989 31.266700745 11.368122101
260 1 1 0.0 35.477924347 29.522607803 12.613633156
261 1 1 0.0 35.68573761 30.712228775 13.497591019
262 1 1 0.0 21.594823837 14.052406311 32.041728973
263 1 1 0.0 21.234891891 16.028921127 31.016637802
264 1 1 0.0 21.962516785 15.111474037 30.08464241
265 1 1 0.0 21.413394928 19.849170685 18.480093002
266 1 1 0.0 19.397226334 20.175140381 17.52312851
267 1 1 0.0 20.305633545 19.494642258 16.547691345
268 1 1 0.0 27.63129425 24.264230728 32.167327881
269 1 1 0.0 26.329790115 25.937206268 32.938186646
270 1 1 0.0 25.848682404 25.517169952 31.584718704
271 1 1 0.0 4.932955265 21.441429138 30.686023712
272 1 1 0.0 5.171237469 22.785797119 28.89078331
273 1 1 0.0 6.302153587 23.022531509 29.841968536
274 1 1 0.0 18.781902313 10.478671074 28.11681366
275 1 1 0.0 17.285749435 9.062555313 29.035028458
276 1 1 0.0 16.560535431 10.204604149 28.3950634
277 1 1 0.0 30.353368759 18.606210709 30.989711761
278 1 1 0.0 32.262836456 18.794296265 32.175266266
279 1 1 0.0 32.286323547 19.767372131 31.038454056
280 1 1 0.0 21.22751236 7.628965378 2.137109995
281 1 1 0.0 20.914642334 6.866535664 4.23658371
282 1 1 0.0 22.378097534 7.062763691 3.992528677
283 1 1 0.0 22.881032944 33.041358948 25.515226364
284 1 1 0.0 22.265378952 30.980371475 26.193658829
285 1 1 0.0 21.578411102 32.007049561 27.038505554
286 1 1 0.0 10.271438599 22.935728073 19.897153854
287 1 1 0.0 9.646056175 20.793790817 19.568559647
288 1 1 0.0 10.378048897 20.903352737 20.869308472
289 1 1 0.0 10.488425255 4.984663486 12.679335594
290 1 1 0.0 11.092597961 7.045092583 11.988986015
291 1 1 0.0 11.766091347 6.017701626 11.134212494
292 1 1 0.0 33.002906799 9.409895897 8.484380722
293 1 1 0.0 31.790071487 7.649785519 7.764643192
294 1 1 0.0 31.996793747 8.606526375 6.632531643
295 1 1 0.0 32.287525177 18.65294075 11.086194992
296 1 1 0.0 33.534053802 20.475278854 11.546869278
297 1 1 0.0 34.171657562 19.269117355 12.162016869
298 1 1 0.0 12.719518661 12.108851433 24.60631752
299 1 1 0.0 13.557534218 10.245910645 23.650197983
300 1 1 0.0 13.848510742 11.426052094 22.777061462
301 1 1 0.0 12.14289856 8.86724472 3.663103819
302 1 1 0.0 12.60855484 10.009083748 5.551580429
303 1 1 0.0 13.611225128 10.36187458 4.498035431
304 1 1 0.0 13.331397057 10.687161446 9.089824677
305 1 1 0.0 14.808571815 10.742405891 10.793314934
306 1 1 0.0 15.074634552 9.539065361 9.944231033
307 1 1 0.0 6.214940548 21.906766891 13.638337135
308 1 1 0.0 4.108189583 21.548810959 14.359758377
309 1 1 0.0 4.10633564 21.684438705 12.869334221
310 1 1 0.0 26.901733398 28.718343735 20.374534607
311 1 1 0.0 27.499324799 30.384698868 21.77207756
312 1 1 0.0 28.233236313 29.135349274 22.146598816
313 1 1 0.0 23.160179138 3.167806864 1.402791858
314 1 1 0.0 21.088720322 4.236905575 1.444733977
315 1 1 0.0 18.962192535 5.191673756 1.400452852
316 1 1 0.0 15.25147438 26.600984573 13.267019272
317 1 1 0.0 13.716773033 27.311458588 11.662157059
318 1 1 0.0 12.297607422 28.027223587 9.956484795
319 1 1 0.0 35.992992401 17.696119308 17.409917831
320 1 1 0.0 35.815517426 19.565294266 16.027763367
321 1 1 0.0 35.707756042 21.35341835 14.535561562
322 1 1 0.0 14.984360695 8.382125854 13.71945858
323 1 1 0.0 16.648817062 7.581499577 12.296695709
324 1 1 0.0 18.343231201 6.926326752 10.835403442
325 1 1 0.0 17.673746109 32.024044037 6.506325722
326 1 1 0.0 19.641860962 30.857810974 6.056772232
327 1 1 0.0 21.665561676 29.8198452 5.544001579
328 1 1 0.0 11.657810211 4.995806694 33.428768158
329 1 1 0.0 9.548439026 5.185978413 32.454048157
330 1 1 0.0 7.407553673 5.235612392 31.532205582
331 1 1 0.0 24.140201569 18.134609222 6.278627872
332 1 1 0.0 22.945837021 19.996904373 5.543082714
333 1 1 0.0 21.869155884 21.946393967 4.853224754
334 1 1 0.0 15.351506233 33.063850403 3.809752703
335 1 1 0.0 13.194523811 32.805843353 2.963269711
336 1 1 0.0 11.099326134 32.536067963 1.976848841
337 1 1 0.0 34.571838379 19.855438232 20.349300385
338 1 1 0.0 35.031322479 20.148635864 22.61614418
339 1 1 0.0 35.63571167 20.474115372 24.844245911
340 1 1 0.0 18.574409485 15.72780323 33.450836182
341 1 1 0.0 17.649160385 16.852279663 31.630083084
342 1 1 0.0 16.767770767 17.859264374 29.720949173
343 1 1 0.0 9.456449509 19.123426437 1.40129292
344 1 1 0.0 9.094175339 16.82068634 1.443854928
345 1 1 0.0 8.858163834 14.501610756 1.40080297
346 1 1 0.0 4.568153858 20.729799271 18.362457275
347 1 1 0.0 6.108393192 19.561731339 17.059020996
348 1 1 0.0 7.53261137 18.306688309 15.70545578
349 1 1 0.0 32.355510712 29.39822197 29.296527863
350 1 1 0.0 33.921112061 29.407249451 27.56896019
351 1 1 0.0 35.56754303 29.51877594 25.922000885
352 1 1 0.0 35.602722168 14.607413292 19.746229172
353 1 1 0.0 34.457073212 15.108688354 17.778520584
354 1 1 0.0 33.421329498 15.535573006 15.733852386
355 1 1 0.0 19.377109528 1.981148839 32.986701965
356 1 1 0.0 21.411626816 3.119744778 32.988113403
357 1 1 0.0 23.400051117 4.330525398 32.862239838
358 1 1 0.0 20.899234772 16.617921829 14.304574966
359 1 1 0.0 22.459840775 18.249330521 14.886535645
360 1 1 0.0 23.935373306 19.982440948 15.391310692
361 1 1 0.0 17.685077667 4.763401031 28.676713943
362 1 1 0.0 16.843496323 4.581835747 30.843379974
363 1 1 0.0 15.9669981 4.549527645 33.003555298
364 1 1 0.0 18.024532318 2.844929695 9.467254639
365 1 1 0.0 20.257555008 2.21996665 9.709522247
366 1 1 0.0 22.482149124 1.529954672 9.813091278
367 1 1 0.0 31.103128433 13.363753319 1.731117725
368 1 1 0.0 30.226276398 15.517407417 1.900149703
369 1 1 0.0 29.314508438 17.663089752 1.919995904
370 1 1 0.0 35.230522156 10.898389816 6.705939293
371 1 1 0.0 35.422737122 12.281673431 8.572822571
372 1 1 0.0 35.488002777 13.737265587 10.392892838
373 1 1 0.0 26.314203262 13.706640244 10.164984703
374 1 1 0.0 24.644622803 13.3501091 11.752772331
375 1 1 0.0 22.871641159 13.019890785 13.230317116
376 1 1 0.0 16.444128036 18.179420471 16.102222443
377 1 1 0.0 16.138305664 16.648694992 14.370454788
378 1 1 0.0 15.797795296 15.012639999 12.744710922
379 1 1 0.0 30.355470657 27.594270706 9.461374283
380 1 1 0.0 29.965421677 29.892770767 9.440693855
381 1 1 0.0 29.66639328 32.200485229 9.296852112
382 1 1 0.0 7.856471062 17.506469727 5.04790163
383 1 1 0.0 6.447649479 18.347839355 3.391704798
384 1 1 0.0 5.143519878 19.298166275 1.708912849
385 1 1 0.0 18.927642822 13.023186684 1.878072858
386 1 1 0.0 18.810092926 13.556620598 4.144635201
387 1 1 0.0 18.540990829 14.106836319 6.394192696
388 1 1 0.0 17.985536575 33.249992371 33.24905014
389 1 1 0.0 16.396680832 31.598237991 32.821388245
390 1 1 0.0 14.81175518 29.988046646 32.24609375
391 1 1 0.0 18.048154831 22.727407455 24.138790131
392 1 1 0.0 16.755407333 21.000864029 25.023958206
393 1 1 0.0 15.372037888 19.381103516 25.971763611
394 1 1 0.0 35.118896484 2.704881907 24.076057434
395 1 1 0.0 33.557567596 2.16560173 22.430727005
396 1 1 0.0 31.953725815 1.773733854 20.784585953
397 1 1 0.0 7.941108227 25.443319321 26.575521469
398 1 1 0.0 6.069028378 24.944936752 25.278367996
399 1 1 0.0 4.25037384 24.544240952 23.875654221
400 1 1 0.0 16.819471359 33.600666046 22.471122742
401 1 1 0.0 14.492980003 33.55644989 22.616579056
402 1 1 0.0 12.161967278 33.597812653 22.634780884
403 1 1 0.0 9.942745209 1.401442766 10.854272842
404 1 1 0.0 12.01112175 1.444626927 9.779273987
405 1 1 0.0 14.135233879 1.402597904 8.819042206
406 1 1 0.0 17.569631577 1.398160934 1.812373757
407 1 1 0.0 19.410783768 1.435215831 3.242217541
408 1 1 0.0 21.170413971 1.387973905 4.770987511
409 1 1 0.0 17.002275467 17.574577332 3.770162821
410 1 1 0.0 17.672956467 19.079393387 5.419826984
411 1 1 0.0 18.43952179 20.476411819 7.121703625
412 1 1 0.0 21.09944725 32.13552475 8.461571693
413 1 1 0.0 22.897039413 32.814350128 7.141142845
414 1 1 0.0 24.722709656 33.345142365 5.791752338
415 1 1 0.0 19.47454071 10.8539114 9.974397659
416 1 1 0.0 18.969249725 10.055559158 12.105828285
417 1 1 0.0 18.334350586 9.339114189 14.231685638
418 1 1 0.0 22.480382919 24.170322418 1.570172906
419 1 1 0.0 23.222457886 21.979906082 1.865259886
420 1 1 0.0 23.859542847 19.745445251 2.057508945
421 1 1 0.0 8.513726234 29.955202103 2.051908016
422 1 1 0.0 8.076522827 29.017240524 4.141106606
423 1 1 0.0 7.522535324 28.003263474 6.166103363
424 1 1 0.0 25.365447998 22.726537704 33.597305298
425 1 1 0.0 23.880590439 20.929559708 33.555667877
426 1 1 0.0 22.496500015 19.053899765 33.59885025
427 1 1 0.0 32.059463501 16.792478561 28.950294495
428 1 1 0.0 29.904542923 16.069187164 29.46877861
429 1 1 0.0 27.701051712 15.41508007 29.859224319
430 1 1 0.0 12.747307777 17.19931221 1.856241822
431 1 1 0.0 12.347984314 17.689085007 4.100419998
432 1 1 0.0 12.091359138 18.131464005 6.375086308
433 1 1 0.0 16.32339859 28.551595688 5.720664501
434 1 1 0.0 18.326778412 27.359193802 5.702692032
435 1 1 0.0 20.366985321 26.240495682 5.555301189
436 1 1 0.0 4.45877552 11.665535927 33.599773407
437 1 1 0.0 6.620905876 12.536780357 33.557319641
438 1 1 0.0 8.732213974 13.524800301 33.600418091
439 1 1 0.0 23.205396652 21.766412735 29.983688354
440 1 1 0.0 23.031667709 19.761127472 28.807115555
441 1 1 0.0 22.871099472 17.836687088 27.500816345
442 1 1 0.0 34.782657623 28.835393906 16.225442886
443 1 1 0.0 32.641895294 29.755903244 16.151397705
444 1 1 0.0 30.553323746 30.791936874 16.16378212
445 1 1 0.0 3.888962746 5.405729771 7.652266979
446 1 1 0.0 3.942649364 4.01815176 5.779456615
447 1 1 0.0 3.913203716 2.528862715 3.985907793
448 1 1 0.0 25.239114761 30.61174202 17.69426918
449 1 1 0.0 23.556894302 30.094860077 19.223531723
450 1 1 0.0 21.775238037 29.648290634 20.659479141
451 1 1 0.0 32.471721649 14.922550201 6.083193302
452 1 1 0.0 31.462690353 13.173464775 7.248621464
453 1 1 0.0 30.545915604 11.327683449 8.338702202
454 1 1 0.0 28.774179459 25.58984375 23.50758934
455 1 1 0.0 29.156045914 24.142847061 21.719839096
456 1 1 0.0 29.462802887 22.587394714 20.010414124
457 1 1 0.0 27.292131424 33.395858765 1.964871883
458 1 1 0.0 27.765626907 32.755256653 4.156013489
459 1 1 0.0 28.22939682 31.968601227 6.301183701
460 1 1 0.0 8.064382553 33.234741211 24.398874283
461 1 1 0.0 7.851565838 30.92146492 24.596712112
462 1 1 0.0 7.788814068 28.596918106 24.76468277
463 1 1 0.0 25.138154984 25.971319199 21.061683655
464 1 1 0.0 25.515939713 23.882238388 20.097993851
465 1 1 0.0 25.797777176 21.833452225 19.021566391
466 1 1 0.0 22.790071487 30.331169128 11.700797081
467 1 1 0.0 22.996595383 28.04466629 12.106923103
468 1 1 0.0 23.095531464 25.734628677 12.406235695
469 1 1 0.0 19.928314209 5.758309364 33.609771729
470 1 1 0.0 18.702665329 7.741030216 33.562007904
471 1 1 0.0 17.586982727 9.787849426 33.599895477
472 1 1 0.0 3.897915602 30.448209763 18.204046249
473 1 1 0.0 3.94224453 29.046913147 20.066860199
474 1 1 0.0 3.902031898 27.749965668 22.003860474
475 1 1 0.0 4.545449734 15.97496891 16.659925461
476 1 1 0.0 5.38020134 14.964608192 14.731705666
477 1 1 0.0 6.295733452 14.082080841 12.777580261
478 1 1 0.0 31.069234848 32.826351166 2.848982811
479 1 1 0.0 30.121656418 30.738401413 2.426794767
480 1 1 0.0 29.219120026 28.665157318 1.858682752
481 1 1 0.0 12.512267113 2.363741875 13.214403152
482 1 1 0.0 12.463135719 2.033699036 15.521854401
483 1 1 0.0 12.528583527 1.603057027 17.812253952
484 1 1 0.0 30.671541214 14.343734741 23.194084167
485 1 1 0.0 28.907751083 14.084746361 24.696630478
486 1 1 0.0 27.233453751 13.88801384 26.307123184
487 1 1 0.0 35.561092377 7.873553753 9.759674072
488 1 1 0.0 35.410923004 7.412037373 7.479297638
489 1 1 0.0 35.11964798 6.89596653 5.224415302
490 1 1 0.0 31.006885529 5.81567049 5.031480312
491 1 1 0.0 29.990858078 3.719428539 5.126975536
492 1 1 0.0 28.935510635 1.641149879 5.075261593
493 1 1 0.0 14.396016121 5.631021976 19.184337616
494 1 1 0.0 12.624373436 7.115860462 19.488002777
495 1 1 0.0 10.95158577 8.715587616 19.767860413
496 1 1 0.0 22.530906677 22.966600418 17.940748215
497 1 1 0.0 20.60080719 22.757564545 19.231752396
498 1 1 0.0 18.589647293 22.548843384 20.392496109
499 1 1 0.0 4.217127323 24.081399918 19.627902985
500 1 1 0.0 5.693429947 23.06652832 21.119962692
501 1 1 0.0 7.124891281 21.915966034 22.556203842
502 1 1 0.0 23.067724228 27.333562851 17.082052231
503 1 1 0.0 24.85042572 26.837034225 15.663918495
504 1 1 0.0 26.53055954 26.29583931 14.140788078
505 1 1 0.0 6.74321413 20.860183716 5.621614933
506 1 1 0.0 5.490082741 20.926229477 7.586550713
507 1 1 0.0 4.223499775 21.143838882 9.531820297
508 1 1 0.0 8.195940971 25.879003525 33.538673401
509 1 1 0.0 6.371768951 24.427930832 33.489093781
510 1 1 0.0 4.477145195 23.070144653 33.538871765
511 1 1 0.0 36.106300354 12.643566132 15.200779915
512 1 1 0.0 36.059429169 14.744480133 14.191011429
513 1 1 0.0 36.098209381 16.897518158 13.297369957
514 1 1 0.0 16.024513245 33.60433197 14.70882988
515 1 1 0.0 15.158208847 33.560394287 16.872913361
516 1 1 0.0 14.175087929 33.602172852 18.986536026
517 1 1 0.0 28.627382278 19.827093124 7.950039864
518 1 1 0.0 30.40533638 21.237737656 8.483546257
519 1 1 0.0 32.090019226 22.767410278 8.991118431
520 1 1 0.0 12.780447006 17.751081467 14.810432434
521 1 1 0.0 11.344740868 19.497917175 15.378752708
522 1 1 0.0 10.029665947 21.317306519 16.008089066
523 1 1 0.0 17.669500351 16.557218552 25.152862549
524 1 1 0.0 17.756505966 15.409947395 27.180635452
525 1 1 0.0 17.710500717 14.329268456 29.245988846
526 1 1 0.0 35.325119019 1.419476867 5.030328751
527 1 1 0.0 33.711959839 1.470082879 6.712831497
528 1 1 0.0 32.194641113 1.438720822 8.482701302
529 1 1 0.0 35.913818359 15.047499657 6.917030334
530 1 1 0.0 34.799503326 16.910148621 7.768211365
531 1 1 0.0 33.730751038 18.85049057 8.49519062
532 1 1 0.0 28.991926193 1.447925925 32.959529877
533 1 1 0.0 31.322113037 1.495545864 33.019844055
534 1 1 0.0 33.652305603 1.447978854 32.959827423
535 1 1 0.0 4.18873167 12.209565163 5.186855316
536 1 1 0.0 6.437016487 11.634537697 5.410978317
537 1 1 0.0 8.716539383 11.157866478 5.521569729
538 1 1 0.0 10.183320999 15.151835442 8.792861938
539 1 1 0.0 9.231221199 17.261892319 9.070052147
540 1 1 0.0 8.300273895 19.395633698 9.197137833
541 1 1 0.0 6.628477573 17.59251976 33.272689819
542 1 1 0.0 8.629445076 16.814523697 32.363552094
543 1 1 0.0 10.5611763 16.033546448 31.317537308
544 1 1 0.0 12.338299751 26.308027267 25.991836548
545 1 1 0.0 13.619106293 27.925403595 24.905874252
546 1 1 0.0 14.773041725 29.585731506 23.745100021
547 1 1 0.0 17.472600937 27.465778351 20.436765671
548 1 1 0.0 18.417512894 28.478841782 22.312000275
549 1 1 0.0 19.223539352 29.547826767 24.22073555
550 1 1 0.0 29.170204163 30.897081375 25.374298096
551 1 1 0.0 30.190696716 28.844312668 25.799028397
552 1 1 0.0 31.239122391 26.840669632 26.36639595
553 1 1 0.0 15.911366463 30.22918129 18.695695877
554 1 1 0.0 14.086313248 29.724208832 17.335601807
555 1 1 0.0 12.278003693 29.357185364 15.910476685
556 1 1 0.0 14.0489254 28.85042572 1.776936769
557 1 1 0.0 15.950330734 27.529542923 2.051882029
558 1 1 0.0 17.856643677 26.192886353 2.174294949
559 1 1 0.0 8.442434311 20.119722366 27.171197891
560 1 1 0.0 6.936582565 18.664310455 26.146570206
561 1 1 0.0 5.336747169 17.328468323 25.101718903
562 1 1 0.0 36.097518921 3.153398752 2.105139971
563 1 1 0.0 36.056869507 5.481956959 1.99633801
564 1 1 0.0 36.101665497 7.812902451 2.014942884
565 1 1 0.0 32.800098419 2.063340664 29.077322006
566 1 1 0.0 31.868104935 3.678767681 30.476415634
567 1 1 0.0 30.906862259 5.182513714 31.976560593
568 1 1 0.0 13.934809685 15.458349228 30.026639938
569 1 1 0.0 13.090306282 14.132843018 31.748708725
570 1 1 0.0 12.200707436 12.706553459 33.364250183
571 1 1 0.0 23.474225998 32.986499786 14.839914322
572 1 1 0.0 25.338218689 31.694198608 14.300312996
573 1 1 0.0 27.288629532 30.526937485 13.781601906
574 1 1 0.0 20.029245377 15.37152195 22.315538406
575 1 1 0.0 20.446781158 17.286117554 23.578733444
576 1 1 0.0 20.749500275 19.269241333 24.766691208
577 1 1 0.0 28.442173004 9.559880257 30.179952621
578 1 1 0.0 27.435064316 8.198766708 31.782693863
579 1 1 0.0 26.42348671 6.725920677 33.280387878
580 1 1 0.0 28.662282944 1.720701933 28.016136169
581 1 1 0.0 29.138269424 3.997332811 28.177576065
582 1 1 0.0 29.560367584 6.290178299 28.19628334
583 1 1 0.0 20.72551918 28.085882187 1.40166986
584 1 1 0.0 22.765592575 29.213724136 1.443491936
585 1 1 0.0 24.740970612 30.451318741 1.399831891