# LAMMPS data file written by Ovito Basic 3.0.0-dev791
272 atoms
4 atom types
0.0 15.3950004578 xlo xhi
0.0 15.307299614 ylo yhi
0.0 18.4260005951 zlo zhi

Atoms  # charge

1 1 0.0 13.204137802 11.234026909 15.849861145
2 1 0.0 13.841645241 9.386436462 16.688611984
3 1 0.0 14.945466042 10.075264931 16.283056259
4 1 0.0 10.639484406 7.863359928 14.427557945
5 1 0.0 9.541820526 12.588723183 16.411670685
6 1 0.0 9.208519936 11.284693718 14.774703979
7 1 0.0 1.630330563 12.950128555 17.571033478
8 1 0.0 1.170019984 13.254590034 12.178481102
9 1 0.0 13.937247276 15.109989166 15.876026154
10 1 0.0 13.282806396 14.540403366 13.950325012
11 1 0.0 11.199863434 9.109374046 1.29534781
12 1 0.0 2.817285061 13.739831924 15.984555244
13 1 0.0 9.888362885 4.073272228 6.636861324
14 1 0.0 9.250855446 5.920863152 7.475613117
15 1 0.0 8.147034645 5.23203516 7.070056438
16 1 0.0 12.453016281 7.443939686 5.214558125
17 1 0.0 13.550680161 2.718576431 7.198669434
18 1 0.0 13.883980751 4.022605419 5.561704159
19 1 0.0 6.067169666 2.357171059 8.358034134
20 1 0.0 6.527480125 2.052708864 2.965480566
21 1 0.0 9.15525341 0.197311088 6.663025856
22 1 0.0 9.80969429 0.766895711 4.737324715
23 1 0.0 5.155785561 1.036304116 6.97976923
24 1 0.0 12.192840576 6.70612812 10.263281822
25 1 0.0 5.50663805 11.726922035 2.576138973
26 1 0.0 6.144144535 13.574513435 1.737387657
27 1 0.0 7.24796629 12.885684013 2.142943859
28 1 0.0 2.941984653 15.097589493 3.998441935
29 1 0.0 1.844321132 10.372226715 2.014330387
30 1 0.0 1.511019349 11.676255226 3.651296139
31 1 0.0 9.327830315 10.010820389 0.854966402
32 1 0.0 8.867520332 9.70635891 6.24751997
33 1 0.0 6.239747524 7.850960732 2.549974203
34 1 0.0 5.585306168 8.420545578 4.475675583
35 1 0.0 3.502362728 13.851575851 17.130653381
36 1 0.0 10.514785767 9.22111702 2.441444874
37 1 0.0 2.190862417 3.58037734 11.789139748
38 1 0.0 1.553355575 1.732786298 10.950387955
39 1 0.0 0.449534029 2.421614647 11.35594368
40 1 0.0 4.755515575 0.209710002 13.211442947
41 1 0.0 5.853178978 4.935073376 11.227330208
42 1 0.0 6.186480522 3.631044626 12.864296913
43 1 0.0 13.764670372 5.296478748 10.067966461
44 1 0.0 14.224980354 5.600941181 15.460519791
45 1 0.0 1.457752585 7.456338406 11.762974739
46 1 0.0 2.112194061 6.886754036 13.68867588
47 1 0.0 12.853285789 6.61734581 11.446231842
48 1 0.0 4.49533987 0.947521865 8.162717819
49 1 0.0 2.190862417 4.073272228 2.576138973
50 1 0.0 1.553355575 5.920863152 1.737387657
51 1 0.0 0.449534029 5.23203516 2.142943859
52 1 0.0 4.755515575 7.443939686 3.998441935
53 1 0.0 5.853178978 2.718576431 2.014330387
54 1 0.0 6.186480522 4.022605419 3.651296139
55 1 0.0 13.764670372 2.357171059 0.854966402
56 1 0.0 14.224980354 2.052708864 6.24751997
57 1 0.0 1.457752585 0.197311088 2.549974203
58 1 0.0 2.112194061 0.766895711 4.475675583
59 1 0.0 4.195137978 6.197926044 17.130653381
60 1 0.0 12.57771492 1.567467451 2.441444874
61 1 0.0 5.50663805 11.234026909 11.789139748
62 1 0.0 6.144144535 9.386436462 10.950387955
63 1 0.0 7.24796629 10.075264931 11.35594368
64 1 0.0 2.941984653 7.863359928 13.211442947
65 1 0.0 1.844321132 12.588723183 11.227330208
66 1 0.0 1.511019349 11.284693718 12.864296913
67 1 0.0 9.327830315 12.950128555 10.067966461
68 1 0.0 8.867520332 13.254590034 15.460519791
69 1 0.0 6.239747524 15.109989166 11.762974739
70 1 0.0 5.585306168 14.540403366 13.68867588
71 1 0.0 10.239214897 14.27099514 11.446231842
72 1 0.0 3.20216012 8.601171494 8.162717819
73 1 0.0 9.888362885 3.58037734 15.849861145
74 1 0.0 9.250855446 1.732786298 16.688611984
75 1 0.0 8.147034645 2.421614647 16.283056259
76 1 0.0 12.453016281 0.209710002 14.427557945
77 1 0.0 13.550680161 4.935073376 16.411670685
78 1 0.0 13.883980751 3.631044626 14.774703979
79 1 0.0 6.067169666 5.296478748 17.571033478
80 1 0.0 6.527480125 5.600941181 12.178481102
81 1 0.0 9.15525341 7.456338406 15.876026154
82 1 0.0 9.80969429 6.886754036 13.950325012
83 1 0.0 11.892637253 1.455724239 1.29534781
84 1 0.0 4.880215168 6.086182117 15.984555244
85 1 0.0 13.204137802 11.726922035 6.636861324
86 1 0.0 13.841645241 13.574513435 7.475613117
87 1 0.0 14.945466042 12.885684013 7.070056438
88 1 0.0 10.639484406 15.097589493 5.214558125
89 1 0.0 9.541820526 10.372226715 7.198669434
90 1 0.0 9.208519936 11.676255226 5.561704159
91 1 0.0 1.630330563 10.010820389 8.358034134
92 1 0.0 1.170019984 9.70635891 2.965480566
93 1 0.0 13.937247276 7.850960732 6.663025856
94 1 0.0 13.282806396 8.420545578 4.737324715
95 1 0.0 2.54171443 8.689954758 6.97976923
96 1 0.0 10.89966011 14.359777451 10.263281822
97 2 0.0 12.653150558 11.941224098 15.566285133
98 2 0.0 13.844723701 8.541473389 17.099328995
99 2 0.0 0.441836506 9.789018631 16.364131927
100 2 0.0 11.378444672 8.226142883 13.972435951
101 2 0.0 9.80969429 12.94079113 17.24120903
102 2 0.0 9.201591492 10.516114235 14.232243538
103 2 0.0 0.985280097 12.411158562 17.991147995
104 2 0.0 0.889831007 14.151597977 12.122465134
105 2 0.0 14.44204998 15.154226303 16.668161392
106 2 0.0 13.207371712 14.117921829 13.11378479
107 2 0.0 12.085075378 8.801696777 1.217958689
108 2 0.0 3.137501001 13.938827515 15.124061584
109 2 0.0 10.439350128 3.366075039 6.353284836
110 2 0.0 9.247776985 6.765826225 7.88632822
111 2 0.0 7.255663872 5.51828146 7.151130676
112 2 0.0 11.714056015 7.081156731 4.759436131
113 2 0.0 13.282806396 2.366508484 8.028208733
114 2 0.0 13.890909195 4.791184902 5.019242287
115 2 0.0 6.712220192 2.896141052 8.778146744
116 2 0.0 6.807669163 1.155701041 2.909465551
117 2 0.0 8.650450706 0.153072998 7.455159664
118 2 0.0 9.885128975 1.189377069 3.900784492
119 2 0.0 4.981822014 0.517386675 6.215090275
120 2 0.0 11.496986389 7.304643631 10.060596466
121 2 0.0 4.955650806 11.019724846 2.859715462
122 2 0.0 6.147223949 14.419475555 1.326671958
123 2 0.0 8.139336586 13.171931267 2.061869383
124 2 0.0 3.680944443 14.734806061 4.453564167
125 2 0.0 2.112194061 10.020158768 1.184791803
126 2 0.0 1.504091501 12.444834709 4.193757534
127 2 0.0 8.682780266 10.549790382 0.434853643
128 2 0.0 8.587330818 8.809350967 6.303534508
129 2 0.0 6.744549751 7.806722641 1.757840395
130 2 0.0 5.509870529 8.843027115 5.312216282
131 2 0.0 4.38757515 14.159252167 17.208042145
132 2 0.0 10.835001945 9.022122383 3.301939249
133 2 0.0 2.741849661 4.287574291 12.072715759
134 2 0.0 1.550276518 0.887823343 10.539672852
135 2 0.0 14.953164101 2.135368347 11.274868965
136 2 0.0 4.016555309 0.572493017 13.666564941
137 2 0.0 5.585306168 5.287141323 10.397791862
138 2 0.0 6.193408489 2.862465143 13.406757355
139 2 0.0 14.409720421 4.757508278 9.647853851
140 2 0.0 14.505169868 6.497948647 15.516535759
141 2 0.0 0.952950537 7.500576973 10.970840454
142 2 0.0 2.1876297 6.464272976 14.525216103
143 2 0.0 12.679322243 7.136262894 12.210910797
144 2 0.0 3.79948616 0.349006444 8.365404129
145 2 0.0 2.741849661 3.366075039 2.859715462
146 2 0.0 1.550276518 6.765826225 1.326671958
147 2 0.0 14.953164101 5.51828146 2.061869383
148 2 0.0 4.016555309 7.081156731 4.453564167
149 2 0.0 5.585306168 2.366508484 1.184791803
150 2 0.0 6.193408489 4.791184902 4.193757534
151 2 0.0 14.409720421 2.896141052 0.434853643
152 2 0.0 14.505169868 1.155701041 6.303534508
153 2 0.0 0.952950537 0.153072998 1.757840395
154 2 0.0 2.1876297 1.189377069 5.312216282
155 2 0.0 3.309925079 6.50560236 17.208042145
156 2 0.0 12.257498741 1.368472576 3.301939249
157 2 0.0 4.955650806 11.941224098 12.072715759
158 2 0.0 6.147223949 8.541473389 10.539672852
159 2 0.0 8.139336586 9.789018631 11.274868965
160 2 0.0 3.680944443 8.226142883 13.666564941
161 2 0.0 2.112194061 12.94079113 10.397791862
162 2 0.0 1.504091501 10.516114235 13.406757355
163 2 0.0 8.682780266 12.411158562 9.647853851
164 2 0.0 8.587330818 14.151597977 15.516535759
165 2 0.0 6.744549751 15.154226303 10.970840454
166 2 0.0 5.509870529 14.117921829 14.525216103
167 2 0.0 10.413178444 14.789913177 12.210910797
168 2 0.0 3.898014069 8.002656937 8.365404129
169 2 0.0 10.439350128 4.287574291 15.566285133
170 2 0.0 9.247776985 0.887823343 17.099328995
171 2 0.0 7.255663872 2.135368347 16.364131927
172 2 0.0 11.714056015 0.572493017 13.972435951
173 2 0.0 13.282806396 5.287141323 17.24120903
174 2 0.0 13.890909195 2.862465143 14.232243538
175 2 0.0 6.712220192 4.757508278 17.991147995
176 2 0.0 6.807669163 6.497948647 12.122465134
177 2 0.0 8.650450706 7.500576973 16.668161392
178 2 0.0 9.885128975 6.464272976 13.11378479
179 2 0.0 11.007425308 1.148047566 1.217958689
180 2 0.0 4.559999466 6.285177231 15.124061584
181 2 0.0 12.653150558 11.019724846 6.353284836
182 2 0.0 13.844723701 14.419475555 7.88632822
183 2 0.0 0.441836506 13.171931267 7.151130676
184 2 0.0 11.378444672 14.734806061 4.759436131
185 2 0.0 9.80969429 10.020158768 8.028208733
186 2 0.0 9.201591492 12.444834709 5.019242287
187 2 0.0 0.985280097 10.549790382 8.778146744
188 2 0.0 0.889831007 8.809350967 2.909465551
189 2 0.0 14.44204998 7.806722641 7.455159664
190 2 0.0 13.207371712 8.843027115 3.900784492
191 2 0.0 2.715678215 8.17103672 6.215090275
192 2 0.0 11.595514297 14.958292961 10.060596466
193 3 0.0 12.731972694 10.125473022 16.40098381
194 3 0.0 14.529185295 11.253008842 15.735067368
195 3 0.0 10.378848076 9.529712677 0.212451786
196 3 0.0 10.217661858 8.217723846 15.663575172
197 3 0.0 9.774285316 11.316380501 15.972025871
198 3 0.0 1.553047657 13.280306816 16.301113129
199 3 0.0 0.955413699 12.429067612 13.231342316
200 3 0.0 14.231907845 14.279720306 14.883049011
201 3 0.0 10.360527992 5.181827068 7.187983036
202 3 0.0 8.563315392 4.054291248 6.52206707
203 3 0.0 12.713652611 5.777587414 9.425451279
204 3 0.0 12.874838829 7.089575768 6.450574398
205 3 0.0 13.31821537 3.990919352 6.759025574
206 3 0.0 6.144452572 2.026992559 7.088113785
207 3 0.0 6.742086411 2.878231525 4.018342018
208 3 0.0 8.860592842 1.027579069 5.670049191
209 3 0.0 5.034472942 12.835476875 2.0250175
210 3 0.0 6.831685543 11.707941055 2.690932989
211 3 0.0 2.68134737 13.431236267 18.21354866
212 3 0.0 2.520161629 14.743226051 2.762426138
213 3 0.0 2.076785564 11.644569397 2.453974962
214 3 0.0 9.250548363 9.680642128 2.124886274
215 3 0.0 8.652914047 10.531881332 5.194657803
216 3 0.0 6.534408092 8.681229591 3.542951345
217 3 0.0 2.663027048 2.471822739 11.238018036
218 3 0.0 0.865814805 3.59935832 11.903933525
219 3 0.0 5.016153336 1.876062632 9.000548363
220 3 0.0 5.1773386 0.564074039 11.97542572
221 3 0.0 5.620714664 3.662730694 11.666975021
222 3 0.0 13.841952324 5.626657009 11.33788681
223 3 0.0 14.439586639 4.775418282 14.407658577
224 3 0.0 1.163092256 6.626070976 12.755951881
225 3 0.0 2.663027048 5.181827068 2.0250175
226 3 0.0 0.865814805 4.054291248 2.690932989
227 3 0.0 5.016153336 5.777587414 18.21354866
228 3 0.0 5.1773386 7.089575768 2.762426138
229 3 0.0 5.620714664 3.990919352 2.453974962
230 3 0.0 13.841952324 2.026992559 2.124886274
231 3 0.0 14.439586639 2.878231525 5.194657803
232 3 0.0 1.163092256 1.027579069 3.542951345
233 3 0.0 5.034472942 10.125473022 11.238018036
234 3 0.0 6.831685543 11.253008842 11.903933525
235 3 0.0 2.68134737 9.529712677 9.000548363
236 3 0.0 2.520161629 8.217723846 11.97542572
237 3 0.0 2.076785564 11.316380501 11.666975021
238 3 0.0 9.250548363 13.280306816 11.33788681
239 3 0.0 8.652914047 12.429067612 14.407658577
240 3 0.0 6.534408092 14.279720306 12.755951881
241 3 0.0 10.360527992 2.471822739 16.40098381
242 3 0.0 8.563315392 3.59935832 15.735067368
243 3 0.0 12.713652611 1.876062632 0.212451786
244 3 0.0 12.874838829 0.564074039 15.663575172
245 3 0.0 13.31821537 3.662730694 15.972025871
246 3 0.0 6.144452572 5.626657009 16.301113129
247 3 0.0 6.742086411 4.775418282 13.231342316
248 3 0.0 8.860592842 6.626070976 14.883049011
249 3 0.0 12.731972694 12.835476875 7.187983036
250 3 0.0 14.529185295 11.707941055 6.52206707
251 3 0.0 10.378848076 13.431236267 9.425451279
252 3 0.0 10.217661858 14.743226051 6.450574398
253 3 0.0 9.774285316 11.644569397 6.759025574
254 3 0.0 1.553047657 9.680642128 7.088113785
255 3 0.0 0.955413699 10.531881332 4.018342018
256 3 0.0 14.231907845 8.681229591 5.670049191
257 4 0.0 10.809598923 9.788865089 16.736373901
258 4 0.0 0.148330823 12.797208786 14.994029045
259 4 0.0 12.282901764 5.518434525 7.523373127
260 4 0.0 7.54916954 2.510091066 5.781028748
261 4 0.0 3.112099409 13.172083855 1.689627409
262 4 0.0 7.845830441 10.163741112 3.431971788
263 4 0.0 4.585401058 2.135215044 10.902627945
264 4 0.0 15.246669769 5.143558502 12.644971848
265 4 0.0 4.585401058 5.518434525 1.689627409
266 4 0.0 15.246669769 2.510091066 3.431971788
267 4 0.0 3.112099409 9.788865089 10.902627945
268 4 0.0 7.845830441 12.797208786 12.644971848
269 4 0.0 12.282901764 2.135215044 16.736373901
270 4 0.0 7.54916954 5.143558502 14.994029045
271 4 0.0 10.809598923 13.172083855 7.523373127
272 4 0.0 0.148330823 10.163741112 5.781028748
