# LAMMPS data file written by Ovito Basic 3.0.0-dev791
2176 atoms
4 atom types
0.0 30.7900009155 xlo xhi
0.0 30.6145992279 ylo yhi
0.0 36.8520011902 zlo zhi

Atoms  # charge

1 1 0.0 13.204137802 11.234026909 15.849861145
2 1 0.0 13.204137802 11.234026909 34.275859833
3 1 0.0 13.204137802 26.54132843 15.849861145
4 1 0.0 13.204137802 26.54132843 34.275859833
5 1 0.0 28.59913826 11.234026909 15.849861145
6 1 0.0 28.59913826 11.234026909 34.275859833
7 1 0.0 28.59913826 26.54132843 15.849861145
8 1 0.0 28.59913826 26.54132843 34.275859833
9 1 0.0 13.841645241 9.386436462 16.688611984
10 1 0.0 13.841645241 9.386436462 35.114612579
11 1 0.0 13.841645241 24.693735123 16.688611984
12 1 0.0 13.841645241 24.693735123 35.114612579
13 1 0.0 29.236646652 9.386436462 16.688611984
14 1 0.0 29.236646652 9.386436462 35.114612579
15 1 0.0 29.236646652 24.693735123 16.688611984
16 1 0.0 29.236646652 24.693735123 35.114612579
17 1 0.0 14.945466042 10.075264931 16.283056259
18 1 0.0 14.945466042 10.075264931 34.709056854
19 1 0.0 14.945466042 25.382564545 16.283056259
20 1 0.0 14.945466042 25.382564545 34.709056854
21 1 0.0 30.340465546 10.075264931 16.283056259
22 1 0.0 30.340465546 10.075264931 34.709056854
23 1 0.0 30.340465546 25.382564545 16.283056259
24 1 0.0 30.340465546 25.382564545 34.709056854
25 1 0.0 10.639484406 7.863359928 14.427557945
26 1 0.0 10.639484406 7.863359928 32.853557587
27 1 0.0 10.639484406 23.170660019 14.427557945
28 1 0.0 10.639484406 23.170660019 32.853557587
29 1 0.0 26.034484863 7.863359928 14.427557945
30 1 0.0 26.034484863 7.863359928 32.853557587
31 1 0.0 26.034484863 23.170660019 14.427557945
32 1 0.0 26.034484863 23.170660019 32.853557587
33 1 0.0 9.541820526 12.588723183 16.411670685
34 1 0.0 9.541820526 12.588723183 34.837673187
35 1 0.0 9.541820526 27.896022797 16.411670685
36 1 0.0 9.541820526 27.896022797 34.837673187
37 1 0.0 24.936820984 12.588723183 16.411670685
38 1 0.0 24.936820984 12.588723183 34.837673187
39 1 0.0 24.936820984 27.896022797 16.411670685
40 1 0.0 24.936820984 27.896022797 34.837673187
41 1 0.0 9.208519936 11.284693718 14.774703979
42 1 0.0 9.208519936 11.284693718 33.200706482
43 1 0.0 9.208519936 26.591995239 14.774703979
44 1 0.0 9.208519936 26.591995239 33.200706482
45 1 0.0 24.60351944 11.284693718 14.774703979
46 1 0.0 24.60351944 11.284693718 33.200706482
47 1 0.0 24.60351944 26.591995239 14.774703979
48 1 0.0 24.60351944 26.591995239 33.200706482
49 1 0.0 1.630330563 12.950128555 17.571033478
50 1 0.0 1.630330563 12.950128555 35.997032166
51 1 0.0 1.630330563 28.257427216 17.571033478
52 1 0.0 1.630330563 28.257427216 35.997032166
53 1 0.0 17.025331497 12.950128555 17.571033478
54 1 0.0 17.025331497 12.950128555 35.997032166
55 1 0.0 17.025331497 28.257427216 17.571033478
56 1 0.0 17.025331497 28.257427216 35.997032166
57 1 0.0 1.170019984 13.254590034 12.178481102
58 1 0.0 1.170019984 13.254590034 30.604480743
59 1 0.0 1.170019984 28.561891556 12.178481102
60 1 0.0 1.170019984 28.561891556 30.604480743
61 1 0.0 16.565019608 13.254590034 12.178481102
62 1 0.0 16.565019608 13.254590034 30.604480743
63 1 0.0 16.565019608 28.561891556 12.178481102
64 1 0.0 16.565019608 28.561891556 30.604480743
65 1 0.0 13.937247276 15.109989166 15.876026154
66 1 0.0 13.937247276 15.109989166 34.302024841
67 1 0.0 13.937247276 30.417287827 15.876026154
68 1 0.0 13.937247276 30.417287827 34.302024841
69 1 0.0 29.33224678 15.109989166 15.876026154
70 1 0.0 29.33224678 15.109989166 34.302024841
71 1 0.0 29.33224678 30.417287827 15.876026154
72 1 0.0 29.33224678 30.417287827 34.302024841
73 1 0.0 13.282806396 14.540403366 13.950325012
74 1 0.0 13.282806396 14.540403366 32.3763237
75 1 0.0 13.282806396 29.847702026 13.950325012
76 1 0.0 13.282806396 29.847702026 32.3763237
77 1 0.0 28.677806854 14.540403366 13.950325012
78 1 0.0 28.677806854 14.540403366 32.3763237
79 1 0.0 28.677806854 29.847702026 13.950325012
80 1 0.0 28.677806854 29.847702026 32.3763237
81 1 0.0 11.199863434 9.109374046 1.29534781
82 1 0.0 11.199863434 9.109374046 19.721347809
83 1 0.0 11.199863434 24.416671753 1.29534781
84 1 0.0 11.199863434 24.416671753 19.721347809
85 1 0.0 26.594861984 9.109374046 1.29534781
86 1 0.0 26.594861984 9.109374046 19.721347809
87 1 0.0 26.594861984 24.416671753 1.29534781
88 1 0.0 26.594861984 24.416671753 19.721347809
89 1 0.0 2.817285061 13.739831924 15.984555244
90 1 0.0 2.817285061 13.739831924 34.410556793
91 1 0.0 2.817285061 29.047130585 15.984555244
92 1 0.0 2.817285061 29.047130585 34.410556793
93 1 0.0 18.212285995 13.739831924 15.984555244
94 1 0.0 18.212285995 13.739831924 34.410556793
95 1 0.0 18.212285995 29.047130585 15.984555244
96 1 0.0 18.212285995 29.047130585 34.410556793
97 1 0.0 9.888362885 4.073272228 6.636861324
98 1 0.0 9.888362885 4.073272228 25.062862396
99 1 0.0 9.888362885 19.380571365 6.636861324
100 1 0.0 9.888362885 19.380571365 25.062862396
101 1 0.0 25.283363342 4.073272228 6.636861324
102 1 0.0 25.283363342 4.073272228 25.062862396
103 1 0.0 25.283363342 19.380571365 6.636861324
104 1 0.0 25.283363342 19.380571365 25.062862396
105 1 0.0 9.250855446 5.920863152 7.475613117
106 1 0.0 9.250855446 5.920863152 25.901613235
107 1 0.0 9.250855446 21.228164673 7.475613117
108 1 0.0 9.250855446 21.228164673 25.901613235
109 1 0.0 24.64585495 5.920863152 7.475613117
110 1 0.0 24.64585495 5.920863152 25.901613235
111 1 0.0 24.64585495 21.228164673 7.475613117
112 1 0.0 24.64585495 21.228164673 25.901613235
113 1 0.0 8.147034645 5.23203516 7.070056438
114 1 0.0 8.147034645 5.23203516 25.49605751
115 1 0.0 8.147034645 20.539333344 7.070056438
116 1 0.0 8.147034645 20.539333344 25.49605751
117 1 0.0 23.542036057 5.23203516 7.070056438
118 1 0.0 23.542036057 5.23203516 25.49605751
119 1 0.0 23.542036057 20.539333344 7.070056438
120 1 0.0 23.542036057 20.539333344 25.49605751
121 1 0.0 12.453016281 7.443939686 5.214558125
122 1 0.0 12.453016281 7.443939686 23.640558243
123 1 0.0 12.453016281 22.751239777 5.214558125
124 1 0.0 12.453016281 22.751239777 23.640558243
125 1 0.0 27.848016739 7.443939686 5.214558125
126 1 0.0 27.848016739 7.443939686 23.640558243
127 1 0.0 27.848016739 22.751239777 5.214558125
128 1 0.0 27.848016739 22.751239777 23.640558243
129 1 0.0 13.550680161 2.718576431 7.198669434
130 1 0.0 13.550680161 2.718576431 25.624670029
131 1 0.0 13.550680161 18.025876999 7.198669434
132 1 0.0 13.550680161 18.025876999 25.624670029
133 1 0.0 28.945680618 2.718576431 7.198669434
134 1 0.0 28.945680618 2.718576431 25.624670029
135 1 0.0 28.945680618 18.025876999 7.198669434
136 1 0.0 28.945680618 18.025876999 25.624670029
137 1 0.0 13.883980751 4.022605419 5.561704159
138 1 0.0 13.883980751 4.022605419 23.987705231
139 1 0.0 13.883980751 19.329904556 5.561704159
140 1 0.0 13.883980751 19.329904556 23.987705231
141 1 0.0 29.278982162 4.022605419 5.561704159
142 1 0.0 29.278982162 4.022605419 23.987705231
143 1 0.0 29.278982162 19.329904556 5.561704159
144 1 0.0 29.278982162 19.329904556 23.987705231
145 1 0.0 6.067169666 2.357171059 8.358034134
146 1 0.0 6.067169666 2.357171059 26.784032822
147 1 0.0 6.067169666 17.664470673 8.358034134
148 1 0.0 6.067169666 17.664470673 26.784032822
149 1 0.0 21.462169647 2.357171059 8.358034134
150 1 0.0 21.462169647 2.357171059 26.784032822
151 1 0.0 21.462169647 17.664470673 8.358034134
152 1 0.0 21.462169647 17.664470673 26.784032822
153 1 0.0 6.527480125 2.052708864 2.965480566
154 1 0.0 6.527480125 2.052708864 21.3914814
155 1 0.0 6.527480125 17.36000824 2.965480566
156 1 0.0 6.527480125 17.36000824 21.3914814
157 1 0.0 21.922481537 2.052708864 2.965480566
158 1 0.0 21.922481537 2.052708864 21.3914814
159 1 0.0 21.922481537 17.36000824 2.965480566
160 1 0.0 21.922481537 17.36000824 21.3914814
161 1 0.0 9.15525341 0.197311088 6.663025856
162 1 0.0 9.15525341 0.197311088 25.089025497
163 1 0.0 9.15525341 15.504610062 6.663025856
164 1 0.0 9.15525341 15.504610062 25.089025497
165 1 0.0 24.550254822 0.197311088 6.663025856
166 1 0.0 24.550254822 0.197311088 25.089025497
167 1 0.0 24.550254822 15.504610062 6.663025856
168 1 0.0 24.550254822 15.504610062 25.089025497
169 1 0.0 9.80969429 0.766895711 4.737324715
170 1 0.0 9.80969429 0.766895711 23.163324356
171 1 0.0 9.80969429 16.074193954 4.737324715
172 1 0.0 9.80969429 16.074193954 23.163324356
173 1 0.0 25.204694748 0.766895711 4.737324715
174 1 0.0 25.204694748 0.766895711 23.163324356
175 1 0.0 25.204694748 16.074193954 4.737324715
176 1 0.0 25.204694748 16.074193954 23.163324356
177 1 0.0 5.155785561 1.036304116 6.97976923
178 1 0.0 5.155785561 1.036304116 25.405769348
179 1 0.0 5.155785561 16.343605042 6.97976923
180 1 0.0 5.155785561 16.343605042 25.405769348
181 1 0.0 20.550786972 1.036304116 6.97976923
182 1 0.0 20.550786972 1.036304116 25.405769348
183 1 0.0 20.550786972 16.343605042 6.97976923
184 1 0.0 20.550786972 16.343605042 25.405769348
185 1 0.0 12.192840576 6.70612812 10.263281822
186 1 0.0 12.192840576 6.70612812 28.689281464
187 1 0.0 12.192840576 22.013427734 10.263281822
188 1 0.0 12.192840576 22.013427734 28.689281464
189 1 0.0 27.587841034 6.70612812 10.263281822
190 1 0.0 27.587841034 6.70612812 28.689281464
191 1 0.0 27.587841034 22.013427734 10.263281822
192 1 0.0 27.587841034 22.013427734 28.689281464
193 1 0.0 5.50663805 11.726922035 2.576138973
194 1 0.0 5.50663805 11.726922035 21.002140045
195 1 0.0 5.50663805 27.034221649 2.576138973
196 1 0.0 5.50663805 27.034221649 21.002140045
197 1 0.0 20.901638031 11.726922035 2.576138973
198 1 0.0 20.901638031 11.726922035 21.002140045
199 1 0.0 20.901638031 27.034221649 2.576138973
200 1 0.0 20.901638031 27.034221649 21.002140045
201 1 0.0 6.144144535 13.574513435 1.737387657
202 1 0.0 6.144144535 13.574513435 20.163389206
203 1 0.0 6.144144535 28.881813049 1.737387657
204 1 0.0 6.144144535 28.881813049 20.163389206
205 1 0.0 21.539146423 13.574513435 1.737387657
206 1 0.0 21.539146423 13.574513435 20.163389206
207 1 0.0 21.539146423 28.881813049 1.737387657
208 1 0.0 21.539146423 28.881813049 20.163389206
209 1 0.0 7.24796629 12.885684013 2.142943859
210 1 0.0 7.24796629 12.885684013 20.568944931
211 1 0.0 7.24796629 28.192983627 2.142943859
212 1 0.0 7.24796629 28.192983627 20.568944931
213 1 0.0 22.642967224 12.885684013 2.142943859
214 1 0.0 22.642967224 12.885684013 20.568944931
215 1 0.0 22.642967224 28.192983627 2.142943859
216 1 0.0 22.642967224 28.192983627 20.568944931
217 1 0.0 2.941984653 15.097589493 3.998441935
218 1 0.0 2.941984653 15.097589493 22.424442291
219 1 0.0 2.941984653 30.404888153 3.998441935
220 1 0.0 2.941984653 30.404888153 22.424442291
221 1 0.0 18.336984634 15.097589493 3.998441935
222 1 0.0 18.336984634 15.097589493 22.424442291
223 1 0.0 18.336984634 30.404888153 3.998441935
224 1 0.0 18.336984634 30.404888153 22.424442291
225 1 0.0 1.844321132 10.372226715 2.014330387
226 1 0.0 1.844321132 10.372226715 20.440332413
227 1 0.0 1.844321132 25.679525375 2.014330387
228 1 0.0 1.844321132 25.679525375 20.440332413
229 1 0.0 17.239320755 10.372226715 2.014330387
230 1 0.0 17.239320755 10.372226715 20.440332413
231 1 0.0 17.239320755 25.679525375 2.014330387
232 1 0.0 17.239320755 25.679525375 20.440332413
233 1 0.0 1.511019349 11.676255226 3.651296139
234 1 0.0 1.511019349 11.676255226 22.077295303
235 1 0.0 1.511019349 26.98355484 3.651296139
236 1 0.0 1.511019349 26.98355484 22.077295303
237 1 0.0 16.906019211 11.676255226 3.651296139
238 1 0.0 16.906019211 11.676255226 22.077295303
239 1 0.0 16.906019211 26.98355484 3.651296139
240 1 0.0 16.906019211 26.98355484 22.077295303
241 1 0.0 9.327830315 10.010820389 0.854966402
242 1 0.0 9.327830315 10.010820389 19.280965805
243 1 0.0 9.327830315 25.318120956 0.854966402
244 1 0.0 9.327830315 25.318120956 19.280965805
245 1 0.0 24.722831726 10.010820389 0.854966402
246 1 0.0 24.722831726 10.010820389 19.280965805
247 1 0.0 24.722831726 25.318120956 0.854966402
248 1 0.0 24.722831726 25.318120956 19.280965805
249 1 0.0 8.867520332 9.70635891 6.24751997
250 1 0.0 8.867520332 9.70635891 24.673521042
251 1 0.0 8.867520332 25.013658524 6.24751997
252 1 0.0 8.867520332 25.013658524 24.673521042
253 1 0.0 24.262519836 9.70635891 6.24751997
254 1 0.0 24.262519836 9.70635891 24.673521042
255 1 0.0 24.262519836 25.013658524 6.24751997
256 1 0.0 24.262519836 25.013658524 24.673521042
257 1 0.0 6.239747524 7.850960732 2.549974203
258 1 0.0 6.239747524 7.850960732 20.975976944
259 1 0.0 6.239747524 23.158260345 2.549974203
260 1 0.0 6.239747524 23.158260345 20.975976944
261 1 0.0 21.634748459 7.850960732 2.549974203
262 1 0.0 21.634748459 7.850960732 20.975976944
263 1 0.0 21.634748459 23.158260345 2.549974203
264 1 0.0 21.634748459 23.158260345 20.975976944
265 1 0.0 5.585306168 8.420545578 4.475675583
266 1 0.0 5.585306168 8.420545578 22.901676178
267 1 0.0 5.585306168 23.727846146 4.475675583
268 1 0.0 5.585306168 23.727846146 22.901676178
269 1 0.0 20.980306625 8.420545578 4.475675583
270 1 0.0 20.980306625 8.420545578 22.901676178
271 1 0.0 20.980306625 23.727846146 4.475675583
272 1 0.0 20.980306625 23.727846146 22.901676178
273 1 0.0 3.502362728 13.851575851 17.130653381
274 1 0.0 3.502362728 13.851575851 35.556652069
275 1 0.0 3.502362728 29.158876419 17.130653381
276 1 0.0 3.502362728 29.158876419 35.556652069
277 1 0.0 18.897361755 13.851575851 17.130653381
278 1 0.0 18.897361755 13.851575851 35.556652069
279 1 0.0 18.897361755 29.158876419 17.130653381
280 1 0.0 18.897361755 29.158876419 35.556652069
281 1 0.0 10.514785767 9.22111702 2.441444874
282 1 0.0 10.514785767 9.22111702 20.867444992
283 1 0.0 10.514785767 24.528417587 2.441444874
284 1 0.0 10.514785767 24.528417587 20.867444992
285 1 0.0 25.909786224 9.22111702 2.441444874
286 1 0.0 25.909786224 9.22111702 20.867444992
287 1 0.0 25.909786224 24.528417587 2.441444874
288 1 0.0 25.909786224 24.528417587 20.867444992
289 1 0.0 2.190862417 3.58037734 11.789139748
290 1 0.0 2.190862417 3.58037734 30.215141296
291 1 0.0 2.190862417 18.887676239 11.789139748
292 1 0.0 2.190862417 18.887676239 30.215141296
293 1 0.0 17.585863113 3.58037734 11.789139748
294 1 0.0 17.585863113 3.58037734 30.215141296
295 1 0.0 17.585863113 18.887676239 11.789139748
296 1 0.0 17.585863113 18.887676239 30.215141296
297 1 0.0 1.553355575 1.732786298 10.950387955
298 1 0.0 1.553355575 1.732786298 29.37638855
299 1 0.0 1.553355575 17.040084839 10.950387955
300 1 0.0 1.553355575 17.040084839 29.37638855
301 1 0.0 16.948356628 1.732786298 10.950387955
302 1 0.0 16.948356628 1.732786298 29.37638855
303 1 0.0 16.948356628 17.040084839 10.950387955
304 1 0.0 16.948356628 17.040084839 29.37638855
305 1 0.0 0.449534029 2.421614647 11.35594368
306 1 0.0 0.449534029 2.421614647 29.781944275
307 1 0.0 0.449534029 17.728914261 11.35594368
308 1 0.0 0.449534029 17.728914261 29.781944275
309 1 0.0 15.84453392 2.421614647 11.35594368
310 1 0.0 15.84453392 2.421614647 29.781944275
311 1 0.0 15.84453392 17.728914261 11.35594368
312 1 0.0 15.84453392 17.728914261 29.781944275
313 1 0.0 4.755515575 0.209710002 13.211442947
314 1 0.0 4.755515575 0.209710002 31.637443542
315 1 0.0 4.755515575 15.517009735 13.211442947
316 1 0.0 4.755515575 15.517009735 31.637443542
317 1 0.0 20.15051651 0.209710002 13.211442947
318 1 0.0 20.15051651 0.209710002 31.637443542
319 1 0.0 20.15051651 15.517009735 13.211442947
320 1 0.0 20.15051651 15.517009735 31.637443542
321 1 0.0 5.853178978 4.935073376 11.227330208
322 1 0.0 5.853178978 4.935073376 29.653329849
323 1 0.0 5.853178978 20.242372513 11.227330208
324 1 0.0 5.853178978 20.242372513 29.653329849
325 1 0.0 21.248180389 4.935073376 11.227330208
326 1 0.0 21.248180389 4.935073376 29.653329849
327 1 0.0 21.248180389 20.242372513 11.227330208
328 1 0.0 21.248180389 20.242372513 29.653329849
329 1 0.0 6.186480522 3.631044626 12.864296913
330 1 0.0 6.186480522 3.631044626 31.290296555
331 1 0.0 6.186480522 18.938344955 12.864296913
332 1 0.0 6.186480522 18.938344955 31.290296555
333 1 0.0 21.581481934 3.631044626 12.864296913
334 1 0.0 21.581481934 3.631044626 31.290296555
335 1 0.0 21.581481934 18.938344955 12.864296913
336 1 0.0 21.581481934 18.938344955 31.290296555
337 1 0.0 13.764670372 5.296478748 10.067966461
338 1 0.0 13.764670372 5.296478748 28.493968964
339 1 0.0 13.764670372 20.603778839 10.067966461
340 1 0.0 13.764670372 20.603778839 28.493968964
341 1 0.0 29.159669876 5.296478748 10.067966461
342 1 0.0 29.159669876 5.296478748 28.493968964
343 1 0.0 29.159669876 20.603778839 10.067966461
344 1 0.0 29.159669876 20.603778839 28.493968964
345 1 0.0 14.224980354 5.600941181 15.460519791
346 1 0.0 14.224980354 5.600941181 33.886520386
347 1 0.0 14.224980354 20.908241272 15.460519791
348 1 0.0 14.224980354 20.908241272 33.886520386
349 1 0.0 29.619981766 5.600941181 15.460519791
350 1 0.0 29.619981766 5.600941181 33.886520386
351 1 0.0 29.619981766 20.908241272 15.460519791
352 1 0.0 29.619981766 20.908241272 33.886520386
353 1 0.0 1.457752585 7.456338406 11.762974739
354 1 0.0 1.457752585 7.456338406 30.188976288
355 1 0.0 1.457752585 22.76363945 11.762974739
356 1 0.0 1.457752585 22.76363945 30.188976288
357 1 0.0 16.852752686 7.456338406 11.762974739
358 1 0.0 16.852752686 7.456338406 30.188976288
359 1 0.0 16.852752686 22.76363945 11.762974739
360 1 0.0 16.852752686 22.76363945 30.188976288
361 1 0.0 2.112194061 6.886754036 13.68867588
362 1 0.0 2.112194061 6.886754036 32.114677429
363 1 0.0 2.112194061 22.19405365 13.68867588
364 1 0.0 2.112194061 22.19405365 32.114677429
365 1 0.0 17.507194519 6.886754036 13.68867588
366 1 0.0 17.507194519 6.886754036 32.114677429
367 1 0.0 17.507194519 22.19405365 13.68867588
368 1 0.0 17.507194519 22.19405365 32.114677429
369 1 0.0 12.853285789 6.61734581 11.446231842
370 1 0.0 12.853285789 6.61734581 29.872234344
371 1 0.0 12.853285789 21.92464447 11.446231842
372 1 0.0 12.853285789 21.92464447 29.872234344
373 1 0.0 28.248287201 6.61734581 11.446231842
374 1 0.0 28.248287201 6.61734581 29.872234344
375 1 0.0 28.248287201 21.92464447 11.446231842
376 1 0.0 28.248287201 21.92464447 29.872234344
377 1 0.0 4.49533987 0.947521865 8.162717819
378 1 0.0 4.49533987 0.947521865 26.588718414
379 1 0.0 4.49533987 16.254821777 8.162717819
380 1 0.0 4.49533987 16.254821777 26.588718414
381 1 0.0 19.890340805 0.947521865 8.162717819
382 1 0.0 19.890340805 0.947521865 26.588718414
383 1 0.0 19.890340805 16.254821777 8.162717819
384 1 0.0 19.890340805 16.254821777 26.588718414
385 1 0.0 2.190862417 4.073272228 2.576138973
386 1 0.0 2.190862417 4.073272228 21.002140045
387 1 0.0 2.190862417 19.380571365 2.576138973
388 1 0.0 2.190862417 19.380571365 21.002140045
389 1 0.0 17.585863113 4.073272228 2.576138973
390 1 0.0 17.585863113 4.073272228 21.002140045
391 1 0.0 17.585863113 19.380571365 2.576138973
392 1 0.0 17.585863113 19.380571365 21.002140045
393 1 0.0 1.553355575 5.920863152 1.737387657
394 1 0.0 1.553355575 5.920863152 20.163389206
395 1 0.0 1.553355575 21.228164673 1.737387657
396 1 0.0 1.553355575 21.228164673 20.163389206
397 1 0.0 16.948356628 5.920863152 1.737387657
398 1 0.0 16.948356628 5.920863152 20.163389206
399 1 0.0 16.948356628 21.228164673 1.737387657
400 1 0.0 16.948356628 21.228164673 20.163389206
401 1 0.0 0.449534029 5.23203516 2.142943859
402 1 0.0 0.449534029 5.23203516 20.568944931
403 1 0.0 0.449534029 20.539333344 2.142943859
404 1 0.0 0.449534029 20.539333344 20.568944931
405 1 0.0 15.84453392 5.23203516 2.142943859
406 1 0.0 15.84453392 5.23203516 20.568944931
407 1 0.0 15.84453392 20.539333344 2.142943859
408 1 0.0 15.84453392 20.539333344 20.568944931
409 1 0.0 4.755515575 7.443939686 3.998441935
410 1 0.0 4.755515575 7.443939686 22.424442291
411 1 0.0 4.755515575 22.751239777 3.998441935
412 1 0.0 4.755515575 22.751239777 22.424442291
413 1 0.0 20.15051651 7.443939686 3.998441935
414 1 0.0 20.15051651 7.443939686 22.424442291
415 1 0.0 20.15051651 22.751239777 3.998441935
416 1 0.0 20.15051651 22.751239777 22.424442291
417 1 0.0 5.853178978 2.718576431 2.014330387
418 1 0.0 5.853178978 2.718576431 20.440332413
419 1 0.0 5.853178978 18.025876999 2.014330387
420 1 0.0 5.853178978 18.025876999 20.440332413
421 1 0.0 21.248180389 2.718576431 2.014330387
422 1 0.0 21.248180389 2.718576431 20.440332413
423 1 0.0 21.248180389 18.025876999 2.014330387
424 1 0.0 21.248180389 18.025876999 20.440332413
425 1 0.0 6.186480522 4.022605419 3.651296139
426 1 0.0 6.186480522 4.022605419 22.077295303
427 1 0.0 6.186480522 19.329904556 3.651296139
428 1 0.0 6.186480522 19.329904556 22.077295303
429 1 0.0 21.581481934 4.022605419 3.651296139
430 1 0.0 21.581481934 4.022605419 22.077295303
431 1 0.0 21.581481934 19.329904556 3.651296139
432 1 0.0 21.581481934 19.329904556 22.077295303
433 1 0.0 13.764670372 2.357171059 0.854966402
434 1 0.0 13.764670372 2.357171059 19.280965805
435 1 0.0 13.764670372 17.664470673 0.854966402
436 1 0.0 13.764670372 17.664470673 19.280965805
437 1 0.0 29.159669876 2.357171059 0.854966402
438 1 0.0 29.159669876 2.357171059 19.280965805
439 1 0.0 29.159669876 17.664470673 0.854966402
440 1 0.0 29.159669876 17.664470673 19.280965805
441 1 0.0 14.224980354 2.052708864 6.24751997
442 1 0.0 14.224980354 2.052708864 24.673521042
443 1 0.0 14.224980354 17.36000824 6.24751997
444 1 0.0 14.224980354 17.36000824 24.673521042
445 1 0.0 29.619981766 2.052708864 6.24751997
446 1 0.0 29.619981766 2.052708864 24.673521042
447 1 0.0 29.619981766 17.36000824 6.24751997
448 1 0.0 29.619981766 17.36000824 24.673521042
449 1 0.0 1.457752585 0.197311088 2.549974203
450 1 0.0 1.457752585 0.197311088 20.975976944
451 1 0.0 1.457752585 15.504610062 2.549974203
452 1 0.0 1.457752585 15.504610062 20.975976944
453 1 0.0 16.852752686 0.197311088 2.549974203
454 1 0.0 16.852752686 0.197311088 20.975976944
455 1 0.0 16.852752686 15.504610062 2.549974203
456 1 0.0 16.852752686 15.504610062 20.975976944
457 1 0.0 2.112194061 0.766895711 4.475675583
458 1 0.0 2.112194061 0.766895711 22.901676178
459 1 0.0 2.112194061 16.074193954 4.475675583
460 1 0.0 2.112194061 16.074193954 22.901676178
461 1 0.0 17.507194519 0.766895711 4.475675583
462 1 0.0 17.507194519 0.766895711 22.901676178
463 1 0.0 17.507194519 16.074193954 4.475675583
464 1 0.0 17.507194519 16.074193954 22.901676178
465 1 0.0 4.195137978 6.197926044 17.130653381
466 1 0.0 4.195137978 6.197926044 35.556652069
467 1 0.0 4.195137978 21.505226135 17.130653381
468 1 0.0 4.195137978 21.505226135 35.556652069
469 1 0.0 19.590139389 6.197926044 17.130653381
470 1 0.0 19.590139389 6.197926044 35.556652069
471 1 0.0 19.590139389 21.505226135 17.130653381
472 1 0.0 19.590139389 21.505226135 35.556652069
473 1 0.0 12.57771492 1.567467451 2.441444874
474 1 0.0 12.57771492 1.567467451 20.867444992
475 1 0.0 12.57771492 16.874765396 2.441444874
476 1 0.0 12.57771492 16.874765396 20.867444992
477 1 0.0 27.972715378 1.567467451 2.441444874
478 1 0.0 27.972715378 1.567467451 20.867444992
479 1 0.0 27.972715378 16.874765396 2.441444874
480 1 0.0 27.972715378 16.874765396 20.867444992
481 1 0.0 5.50663805 11.234026909 11.789139748
482 1 0.0 5.50663805 11.234026909 30.215141296
483 1 0.0 5.50663805 26.54132843 11.789139748
484 1 0.0 5.50663805 26.54132843 30.215141296
485 1 0.0 20.901638031 11.234026909 11.789139748
486 1 0.0 20.901638031 11.234026909 30.215141296
487 1 0.0 20.901638031 26.54132843 11.789139748
488 1 0.0 20.901638031 26.54132843 30.215141296
489 1 0.0 6.144144535 9.386436462 10.950387955
490 1 0.0 6.144144535 9.386436462 29.37638855
491 1 0.0 6.144144535 24.693735123 10.950387955
492 1 0.0 6.144144535 24.693735123 29.37638855
493 1 0.0 21.539146423 9.386436462 10.950387955
494 1 0.0 21.539146423 9.386436462 29.37638855
495 1 0.0 21.539146423 24.693735123 10.950387955
496 1 0.0 21.539146423 24.693735123 29.37638855
497 1 0.0 7.24796629 10.075264931 11.35594368
498 1 0.0 7.24796629 10.075264931 29.781944275
499 1 0.0 7.24796629 25.382564545 11.35594368
500 1 0.0 7.24796629 25.382564545 29.781944275
501 1 0.0 22.642967224 10.075264931 11.35594368
502 1 0.0 22.642967224 10.075264931 29.781944275
503 1 0.0 22.642967224 25.382564545 11.35594368
504 1 0.0 22.642967224 25.382564545 29.781944275
505 1 0.0 2.941984653 7.863359928 13.211442947
506 1 0.0 2.941984653 7.863359928 31.637443542
507 1 0.0 2.941984653 23.170660019 13.211442947
508 1 0.0 2.941984653 23.170660019 31.637443542
509 1 0.0 18.336984634 7.863359928 13.211442947
510 1 0.0 18.336984634 7.863359928 31.637443542
511 1 0.0 18.336984634 23.170660019 13.211442947
512 1 0.0 18.336984634 23.170660019 31.637443542
513 1 0.0 1.844321132 12.588723183 11.227330208
514 1 0.0 1.844321132 12.588723183 29.653329849
515 1 0.0 1.844321132 27.896022797 11.227330208
516 1 0.0 1.844321132 27.896022797 29.653329849
517 1 0.0 17.239320755 12.588723183 11.227330208
518 1 0.0 17.239320755 12.588723183 29.653329849
519 1 0.0 17.239320755 27.896022797 11.227330208
520 1 0.0 17.239320755 27.896022797 29.653329849
521 1 0.0 1.511019349 11.284693718 12.864296913
522 1 0.0 1.511019349 11.284693718 31.290296555
523 1 0.0 1.511019349 26.591995239 12.864296913
524 1 0.0 1.511019349 26.591995239 31.290296555
525 1 0.0 16.906019211 11.284693718 12.864296913
526 1 0.0 16.906019211 11.284693718 31.290296555
527 1 0.0 16.906019211 26.591995239 12.864296913
528 1 0.0 16.906019211 26.591995239 31.290296555
529 1 0.0 9.327830315 12.950128555 10.067966461
530 1 0.0 9.327830315 12.950128555 28.493968964
531 1 0.0 9.327830315 28.257427216 10.067966461
532 1 0.0 9.327830315 28.257427216 28.493968964
533 1 0.0 24.722831726 12.950128555 10.067966461
534 1 0.0 24.722831726 12.950128555 28.493968964
535 1 0.0 24.722831726 28.257427216 10.067966461
536 1 0.0 24.722831726 28.257427216 28.493968964
537 1 0.0 8.867520332 13.254590034 15.460519791
538 1 0.0 8.867520332 13.254590034 33.886520386
539 1 0.0 8.867520332 28.561891556 15.460519791
540 1 0.0 8.867520332 28.561891556 33.886520386
541 1 0.0 24.262519836 13.254590034 15.460519791
542 1 0.0 24.262519836 13.254590034 33.886520386
543 1 0.0 24.262519836 28.561891556 15.460519791
544 1 0.0 24.262519836 28.561891556 33.886520386
545 1 0.0 6.239747524 15.109989166 11.762974739
546 1 0.0 6.239747524 15.109989166 30.188976288
547 1 0.0 6.239747524 30.417287827 11.762974739
548 1 0.0 6.239747524 30.417287827 30.188976288
549 1 0.0 21.634748459 15.109989166 11.762974739
550 1 0.0 21.634748459 15.109989166 30.188976288
551 1 0.0 21.634748459 30.417287827 11.762974739
552 1 0.0 21.634748459 30.417287827 30.188976288
553 1 0.0 5.585306168 14.540403366 13.68867588
554 1 0.0 5.585306168 14.540403366 32.114677429
555 1 0.0 5.585306168 29.847702026 13.68867588
556 1 0.0 5.585306168 29.847702026 32.114677429
557 1 0.0 20.980306625 14.540403366 13.68867588
558 1 0.0 20.980306625 14.540403366 32.114677429
559 1 0.0 20.980306625 29.847702026 13.68867588
560 1 0.0 20.980306625 29.847702026 32.114677429
561 1 0.0 10.239214897 14.27099514 11.446231842
562 1 0.0 10.239214897 14.27099514 29.872234344
563 1 0.0 10.239214897 29.578294754 11.446231842
564 1 0.0 10.239214897 29.578294754 29.872234344
565 1 0.0 25.634214401 14.27099514 11.446231842
566 1 0.0 25.634214401 14.27099514 29.872234344
567 1 0.0 25.634214401 29.578294754 11.446231842
568 1 0.0 25.634214401 29.578294754 29.872234344
569 1 0.0 3.20216012 8.601171494 8.162717819
570 1 0.0 3.20216012 8.601171494 26.588718414
571 1 0.0 3.20216012 23.908472061 8.162717819
572 1 0.0 3.20216012 23.908472061 26.588718414
573 1 0.0 18.597160339 8.601171494 8.162717819
574 1 0.0 18.597160339 8.601171494 26.588718414
575 1 0.0 18.597160339 23.908472061 8.162717819
576 1 0.0 18.597160339 23.908472061 26.588718414
577 1 0.0 9.888362885 3.58037734 15.849861145
578 1 0.0 9.888362885 3.58037734 34.275859833
579 1 0.0 9.888362885 18.887676239 15.849861145
580 1 0.0 9.888362885 18.887676239 34.275859833
581 1 0.0 25.283363342 3.58037734 15.849861145
582 1 0.0 25.283363342 3.58037734 34.275859833
583 1 0.0 25.283363342 18.887676239 15.849861145
584 1 0.0 25.283363342 18.887676239 34.275859833
585 1 0.0 9.250855446 1.732786298 16.688611984
586 1 0.0 9.250855446 1.732786298 35.114612579
587 1 0.0 9.250855446 17.040084839 16.688611984
588 1 0.0 9.250855446 17.040084839 35.114612579
589 1 0.0 24.64585495 1.732786298 16.688611984
590 1 0.0 24.64585495 1.732786298 35.114612579
591 1 0.0 24.64585495 17.040084839 16.688611984
592 1 0.0 24.64585495 17.040084839 35.114612579
593 1 0.0 8.147034645 2.421614647 16.283056259
594 1 0.0 8.147034645 2.421614647 34.709056854
595 1 0.0 8.147034645 17.728914261 16.283056259
596 1 0.0 8.147034645 17.728914261 34.709056854
597 1 0.0 23.542036057 2.421614647 16.283056259
598 1 0.0 23.542036057 2.421614647 34.709056854
599 1 0.0 23.542036057 17.728914261 16.283056259
600 1 0.0 23.542036057 17.728914261 34.709056854
601 1 0.0 12.453016281 0.209710002 14.427557945
602 1 0.0 12.453016281 0.209710002 32.853557587
603 1 0.0 12.453016281 15.517009735 14.427557945
604 1 0.0 12.453016281 15.517009735 32.853557587
605 1 0.0 27.848016739 0.209710002 14.427557945
606 1 0.0 27.848016739 0.209710002 32.853557587
607 1 0.0 27.848016739 15.517009735 14.427557945
608 1 0.0 27.848016739 15.517009735 32.853557587
609 1 0.0 13.550680161 4.935073376 16.411670685
610 1 0.0 13.550680161 4.935073376 34.837673187
611 1 0.0 13.550680161 20.242372513 16.411670685
612 1 0.0 13.550680161 20.242372513 34.837673187
613 1 0.0 28.945680618 4.935073376 16.411670685