# LAMMPS data file written by Ovito Basic 3.0.0-dev791
38 atoms
2 atom types
0.0 5.0215024948 xlo xhi
0.0 8.6974973679 ylo yhi
0.0 31.0211410522 zlo zhi

Atoms  # charge

1 1 0.0 4.902517319 4.348748684 12.347426414
2 1 0.0 4.902517319 4.348748684 6.836856842
3 1 0.0 2.391767025 0.0 12.347426414
4 1 0.0 2.391767025 0.0 6.836856842
5 1 0.0 1.314867854 6.420078754 14.184283257
6 1 0.0 1.314867854 6.420078754 8.67371273
7 1 0.0 3.825618744 2.071331024 14.184283257
8 1 0.0 3.825618744 2.071331024 8.67371273
9 1 0.0 3.825618744 6.626165867 10.510568619
10 1 0.0 3.825618744 6.626165867 16.021137238
11 1 0.0 3.825618744 6.626165867 4.999999523
12 1 0.0 1.314867854 2.27741766 10.510568619
13 1 0.0 1.314867854 2.27741766 16.021137238
14 1 0.0 1.314867854 2.27741766 4.999999523
15 2 0.0 0.826168001 5.039155483 13.479611397
16 2 0.0 0.826167703 3.658340693 11.215240479
17 2 0.0 0.826168001 5.039155483 7.969041348
18 2 0.0 0.826167703 3.658340693 5.704670906
19 2 0.0 3.336918831 0.690407276 13.479611397
20 2 0.0 1.440201879 1.113687992 11.642754555
21 2 0.0 3.336919785 8.007089615 11.215240479
22 2 0.0 1.440201879 7.583808422 13.052097321
23 2 0.0 3.336918831 0.690407276 7.969041348
24 2 0.0 1.440201879 1.113687992 6.132184505
25 2 0.0 3.336919785 8.007089615 5.704670906
26 2 0.0 1.440201879 7.583808422 7.541527748
27 2 0.0 0.2443811 1.804095864 14.888955116
28 2 0.0 0.2443811 1.804095864 9.378383636
29 2 0.0 0.244381592 6.893400669 9.805898666
30 2 0.0 0.244381592 6.893400669 15.316468239
31 2 0.0 2.755132437 2.5446527 15.316468239
32 2 0.0 2.755132437 2.5446527 9.805898666
33 2 0.0 3.950953722 5.462436676 11.642754555
34 2 0.0 3.950953722 5.462436676 6.132184505
35 2 0.0 3.950952768 3.235059738 13.052097321
36 2 0.0 3.950952768 3.235059738 7.541527748
37 2 0.0 2.755131483 6.152843952 14.888955116
38 2 0.0 2.755131483 6.152843952 9.378383636
