LAMMPS (31 Mar 2017)
  using 1 OpenMP thread(s) per MPI task
Reading data file ...
  orthogonal box = (-1.23171 -1.23178 -1.23171) to (77.6683 77.6682 77.6683)
  3 by 4 by 6 MPI processor grid
  reading atoms ...
  32766 atoms
Finding 1-2 1-3 1-4 neighbors ...
  special bond factors lj:   0          0          0         
  special bond factors coul: 0          0          0         
  0 = max # of 1-2 neighbors
  0 = max # of 1-3 neighbors
  0 = max # of 1-4 neighbors
  1 = max # of special neighbors
Finding 1-2 1-3 1-4 neighbors ...
  special bond factors lj:   0          0          1         
  special bond factors coul: 0          0          1         
  0 = max # of 1-2 neighbors
  0 = max # of 1-3 neighbors
  1 = max # of special neighbors
1 atoms in group pull
2047 atoms in group freez
PPPM initialization ...
WARNING: Using 12-bit tables for long-range coulomb (../kspace.cpp:321)
  G vector (1/distance) = 0.295406
  grid = 120 120 120
  stencil order = 5
  estimated absolute RMS force accuracy = 0.000369796
  estimated relative force accuracy = 1.11363e-06
  using double precision FFTs
  3d grid and FFT values/proc = 55419 28800
Neighbor list info ...
  update every 1 steps, delay 10 steps, check yes
  max neighbors/atom: 10000, page size: 100000
  master list distance cutoff = 14
  ghost atom cutoff = 14
  binsize = 7, bins = 12 12 12
  1 neighbor lists, perpetual/occasional/extra = 1 0 0
  (1) pair lj/cut/coul/long, perpetual
      attributes: half, newton on
      pair build: half/bin/newton
      stencil: half/bin/3d/newton
      bin: standard
Setting up Verlet run ...
  Unit style    : real
  Current step  : 0
  Time step     : 1
Per MPI rank memory allocation (min/avg/max) = 13.43 | 13.87 | 14.5 Mbytes
Step TotEng Temp Press PotEng KinEng Enthalpy f_9[3] f_9[4] f_9[5] f_9[6] f_9[7] 
       0   -5660920.8            0   -85169.769   -5660920.8            0   -6271008.6            0            0    63.015645    83.036828            0 
     200   -5688049.2    1.0540689   -21.321819   -5688152.1    102.94694   -5688189.7   -14.507412   -14.507412    63.015445      83.0279 -0.0018220646 
     400   -5687986.8    1.3024703    1.3816167     -5688114    127.20738   -5687977.7   -10.338709   -10.338709    63.015245    83.041377 -0.0035647159 
     600   -5687893.8    1.7940361   -5.3824046     -5688069    175.21677   -5687929.3   -13.118387   -13.118387    63.015045    83.048025 -0.005240316 
     800   -5687755.6    2.4913188   -95.037313   -5687998.9    243.31774   -5688382.2   -4.5203697   -4.5203697    63.014845    83.055351 -0.0067696457 
    1000   -5687553.2     3.411162    91.864684   -5687886.4    333.15537   -5686947.7   -14.205333   -14.205333    63.014645    83.038259 -0.0082664536 
    1200   -5687254.5    4.9426945    965.92941   -5687737.3     482.7344   -5680890.9   -6.4874833   -6.4874833    63.014445    83.054695 -0.0098963636 
    1400   -5686796.7     8.013165   -90.609115   -5687579.3    782.61571   -5687394.2   -14.495812   -14.495812    63.014245    83.035007 -0.011392262 
    1600   -5686117.2    11.812127    113.13028   -5687270.9    1153.6461   -5685371.3    -5.287695    -5.287695    63.014045    83.066496 -0.012782632 
    1800     -5685074    15.748811   -408.69151   -5686612.2    1538.1271   -5687770.8   -3.2817341   -3.2817341    63.013845    83.048442 -0.014170693 
    2000   -5683474.8    24.037514   -688.62049   -5685822.5    2347.6536   -5688021.5   -20.817385   -20.817385    63.013645    83.028398 -0.015653526 
    2200   -5681013.7    36.054937   -454.44912   -5684535.1    3521.3502   -5684015.8   -4.2199324   -4.2199324    63.013445    83.078656 -0.016413838 
    2400   -5677196.5    57.698262    -607.5671   -5682831.6    5635.1724   -5681214.1   -18.434876   -18.434876    63.013245    83.055953 -0.018075705 
    2600   -5671247.7    87.261377    783.58817   -5679770.2    8522.4907   -5666063.5   -11.102503   -11.102503    63.013045    83.101634 -0.019069537 
    2800   -5661987.7    132.66929   -341.25122   -5674945.1    12957.311   -5664253.3   -18.097459   -18.097459    63.012845    83.070141 -0.019695087 
    3000     -5647678    210.07036    47.782645   -5668194.8    20516.782   -5647359.7    17.253713    17.253713    63.012645    83.052029 -0.020177441 
    3200   -5625882.8    320.76013    638.61191   -5657210.2    31327.436   -5621606.1   -19.557422   -19.557422    63.012445    83.048847 -0.020198092 
    3400   -5593664.4    475.70211    993.41238   -5640124.4    46460.037   -5586956.7   -21.210015   -21.210015    63.012245    83.003522 -0.021528875 
    3600   -5548182.1    696.96738    322.44765   -5616252.2    68070.184   -5545976.9    109.94298    109.94298    63.012045     83.28318 -0.020225222 
    3800   -5489350.8    972.46174    262.49136   -5584327.5    94976.683   -5487526.2    45.313138    45.313138    63.011845    83.100933 -0.020235517 
    4000   -5423434.3    1279.9334    482.40307   -5548440.6    125006.28   -5420018.7   -27.855488   -27.855488    63.011645    82.926909 -0.021741943 
    4200   -5369927.3    1523.4596   -426.28064   -5518717.9    148790.57   -5372994.4     -23.4855     -23.4855    63.011445    83.215739 -0.022493074 
    4400   -5365199.3    1539.4009   -393.66772   -5515546.8     150347.5     -5368036     46.77346     46.77346    63.011245    83.518267 -0.025526555 
    4600   -5391899.9    1431.0475    147.95165   -5531664.9    139765.03   -5390843.4   -37.840668   -37.840668    63.011045    83.182022 -0.026082178 
    4800   -5383967.8    1447.7796    850.66285     -5525367    141399.19   -5377879.5    30.844621    30.844621    63.010845    82.878292 -0.031025559 
    5000   -5366453.1    1529.0507   -574.68681   -5515789.7    149336.64   -5370590.1   -26.784893   -26.784893    63.010645    83.062123 -0.033157786 
    5200   -5380652.1    1457.9806     133.0064   -5523047.6    142395.48     -5379699    9.4499139    9.4499139    63.010445    83.003633 -0.033128648 
    5400   -5388382.1    1431.1526   -336.45178   -5528157.4     139775.3   -5390788.5   -1.6273301   -1.6273301    63.010245     83.21471  -0.03590489 
    5600   -5372158.4    1501.0859    96.558855   -5518763.8    146605.42   -5371464.8    33.030223    33.030223    63.010045    83.214475 -0.037197346 
    5800   -5373741.7    1496.1406   -1412.2897   -5519864.1    146122.43   -5383890.8   -7.8955505   -7.8955505    63.009845      82.8884 -0.038672589 
    6000   -5387720.7    1438.9473   -406.28485   -5528257.2    140536.57   -5390625.1    56.042521    56.042521    63.009645    82.978668 -0.038224659 
    6200   -5379445.4     1471.012   -700.56371   -5523113.6    143668.21   -5384467.6    15.309992    15.309992    63.009445    83.015378 -0.040524848 
    6400   -5370394.2    1516.2839    215.07138     -5518484    148089.75   -5368849.7   -27.953315   -27.953315    63.009245    82.949804 -0.037356602 
    6600   -5382511.1    1466.7249     804.5489   -5525760.6    143249.51   -5376758.4    32.491315    32.491315    63.009045    83.145681 -0.039051839 
    6800   -5384967.1    1446.7457    424.55474   -5526265.3    141298.21   -5381932.2   -55.552658   -55.552658    63.008845    82.985186  -0.03978879 
    7000   -5372725.6    1500.4591   -266.69359   -5519269.8     146544.2   -5374640.5    44.150524    44.150524    63.008645    83.083761 -0.039705053 
    7200   -5376864.7    1473.9058    387.05498   -5520815.5    143950.84   -5374089.1   -21.004503   -21.004503    63.008445    83.306328 -0.039175986 
    7400     -5386044    1450.0574   -1148.9378   -5527665.7    141621.65   -5394265.5    2.9989451    2.9989451    63.008245      83.1375 -0.035947949 
    7600   -5377565.8    1490.4639    409.88235   -5523133.8       145568     -5374631    25.702556    25.702556    63.008045    83.089255 -0.030970844 
    7800   -5373037.2    1497.1074    714.19955     -5519254    146216.85   -5367915.2   -109.53653   -109.53653    63.007845    82.827548 -0.030656181 
    8000   -5383206.7    1450.6785    233.44838     -5524889    141682.32   -5381536.8    22.770375    22.770375    63.007645    82.999386 -0.029428254 
    8200   -5382579.4    1463.4169    933.37365   -5525505.8    142926.43   -5375909.1   -3.1637556   -3.1637556    63.007445    83.091374 -0.033021658 
    8400   -5373163.1    1499.2196   -209.80176   -5519586.3    146423.14     -5374669   -76.323938   -76.323938    63.007245    82.983544 -0.029997681 
    8600   -5378787.1    1469.6683   -477.39297   -5522324.1    143536.98   -5382207.8    34.102538    34.102538    63.007045    83.095768 -0.030209133 
    8800   -5384750.5    1450.7108   -535.61069     -5526436    141685.48   -5388580.6   -42.403339   -42.403339    63.006845    83.044152 -0.033568072 
    9000   -5376543.7    1478.6922   -171.83311     -5520962    144418.31   -5377775.4   -40.829411   -40.829411    63.006645     82.87854 -0.034872372 
    9200   -5374926.7    1489.8258     270.2162   -5520432.3    145505.69   -5372988.9   -31.091973   -31.091973    63.006445    82.961153 -0.039167703 
    9400   -5383824.8    1462.8144   -202.04446   -5526692.4    142867.59   -5385269.2   -43.396829   -43.396829    63.006245    82.896753 -0.041443848 
    9600   -5380629.8    1472.3221    1026.5845     -5524426    143796.17   -5373289.5     42.65377     42.65377    63.006045    83.160851 -0.045356667 
    9800   -5373721.4    1485.1972   -926.93935     -5518775    145053.63   -5380380.3    60.351205    60.351205    63.005845    83.052466 -0.047800526 
   10000   -5380215.7    1468.5831    351.38574   -5523646.7    143430.99   -5377700.7   -33.472047   -33.472047    63.005645    83.049384 -0.046792866 
   10200   -5383561.7    1459.2107    289.59215   -5526077.3    142515.62   -5381491.6   -20.317186   -20.317186    63.005445    82.977373 -0.052070489 
   10400   -5375724.1    1488.2114   -384.31246   -5521072.1    145348.02     -5378480   -22.366607   -22.366607    63.005245    83.103487  -0.05674833 
   10600   -5376816.5    1476.2775   -829.06268     -5520999    144182.48   -5382762.3    36.187535    36.187535    63.005045     83.06765  -0.05759394 
   10800   -5383699.1    1461.0485   -573.68992   -5526394.3    142695.11   -5387801.6   -10.269332   -10.269332    63.004845    82.901702 -0.059587811 
   11000   -5379347.4    1468.2993    878.92517   -5522750.6    143403.27   -5373056.4   -23.454469   -23.454469    63.004645     82.93089 -0.060643859 
   11200     -5374817    1493.6393    619.15062   -5520695.1    145878.13   -5370380.6   -2.2742758   -2.2742758    63.004445    82.947179 -0.063051787 
   11400   -5381636.5     1459.925    849.79781   -5524221.9    142585.39   -5375558.2    -6.176507    -6.176507    63.004245    82.851823  -0.06144325 
   11600   -5382158.1    1465.9862   -265.61952   -5525335.5    143177.36   -5384058.4    75.352056    75.352056    63.004045    83.229579  -0.06199763 
   11800   -5375052.7    1498.0338    312.75086     -5521360    146307.33   -5372811.5   -49.669883   -49.669883    63.003845    83.147038 -0.056818888 
   12000   -5378314.5    1469.0792    91.705384   -5521793.9    143479.44   -5377657.6    34.486635    34.486635    63.003645    83.165402 -0.055564275 
   12200     -5383199     1455.015    1291.7643   -5525304.8    142105.85   -5373967.8   -64.854517   -64.854517    63.003445    83.063775 -0.052609424 
   12400   -5378087.8    1474.9974    354.49317   -5522145.3    144057.45   -5375549.4    6.5810801    6.5810801    63.003245    83.186201 -0.049758959 
   12600   -5375504.9    1493.3264   -154.49312   -5521352.5    145847.58   -5376612.4    21.313257    21.313257    63.003045    83.084814 -0.048158405 
   12800   -5382226.1    1460.2917    894.91285   -5524847.3     142621.2   -5375828.6   -19.290106   -19.290106    63.002845    82.990904 -0.049588687 
   13000   -5380866.8    1458.0354   -896.42052   -5523267.7    142400.83   -5387289.6   -27.553499   -27.553499    63.002645    83.156495 -0.050134897 
   13200   -5375407.4    1487.9652   -24.669565   -5520731.4    145323.97   -5375584.3    24.172202    24.172202    63.002445    83.147338 -0.052761342 
   13400   -5379382.4    1478.1392    -250.5218   -5523746.7     144364.3   -5381176.7      -11.639      -11.639    63.002245    82.958003  -0.05323833 
   13600   -5382566.9    1456.7171   -1327.9878   -5524838.9    142272.08   -5392081.9    60.506536    60.506536    63.002045    83.127569 -0.053447838 
   13800   -5377190.4    1482.1413   -1070.6453   -5521945.5    144755.17   -5384869.8   -35.130595   -35.130595    63.001845    83.040896 -0.053527662 
   14000   -5376450.7    1487.6381    836.18261   -5521742.8    145292.03   -5370463.6    11.414297    11.414297    63.001645    83.019786 -0.056220543 
   14200   -5382338.2     1453.847   -309.40015   -5524329.9    141991.77     -5384553   -45.996303   -45.996303    63.001445    83.169749 -0.059889074 
   14400   -5379839.9    1467.8345    1114.6856   -5523197.8    143357.88   -5371866.9    -17.55079    -17.55079    63.001245    83.014625 -0.062424445 
   14600   -5375616.4    1492.5863    940.70797   -5521391.7    145775.29   -5368879.8   0.64819074   0.64819074    63.001045    82.969217 -0.066011345 
   14800     -5380471    1467.0856    1320.6609   -5523755.7    143284.74     -5371029   -42.880488   -42.880488    63.000845    83.088788 -0.066971125 
   15000   -5382079.6    1459.4317    -404.8013   -5524616.8    142537.21   -5384976.3   -8.9150307   -8.9150307    63.000645    83.029935 -0.068931545 
   15200   -5376526.9    1480.2906   -65.764045   -5521101.3    144574.42   -5376998.3   -9.1561955   -9.1561955    63.000445    83.045673 -0.073241381 
   15400     -5378058    1477.8202    462.34538   -5522391.1    144333.14   -5374748.2    25.547807    25.547807    63.000245    82.852653 -0.075681776 
   15600   -5382587.3    1453.0035   -117.54736   -5524496.7    141909.39   -5383428.2    24.475184    24.475184    63.000045    82.915056 -0.075890544 
   15800   -5378572.8    1473.3215    669.82578   -5522466.5    143893.77   -5373778.2   -11.572771   -11.572771    62.999845    83.300471 -0.075166541 
   16000   -5376277.3    1480.2803    48.452884   -5520850.7    144573.42     -5375930    1.3248844    1.3248844    62.999645    83.007358 -0.073361047 
   16200   -5381260.1    1467.8006    644.22171   -5524614.6    143354.56   -5376653.5    6.7138423    6.7138423    62.999445    83.128604 -0.073999229 
   16400   -5380909.9    1459.1235    374.02165     -5523417    142507.11   -5378233.5    25.879225    25.879225    62.999245    83.031069 -0.068376355 
   16600     -5376124    1492.7567    217.10526   -5521915.9    145791.93   -5374568.7   -6.5841766   -6.5841766    62.999045    83.018293 -0.068025326 
   16800   -5379171.8    1464.8104    883.87965   -5522234.3    143062.53   -5372847.9    14.910039    14.910039    62.998845    83.056703 -0.066206265 
   17000     -5382081    1459.4575    98.036902   -5524620.7    142539.73   -5381379.7     34.08704     34.08704    62.998645    83.217624 -0.065220364 
   17200     -5377337    1484.1872   -191.06405     -5522292    144954.98   -5378705.7   -56.111305   -56.111305    62.998445    82.998358 -0.066057266 
   17400   -5377075.8    1493.2513    790.86147   -5522916.1    145840.24   -5371414.6    27.563776    27.563776    62.998245    83.202785 -0.066734875 
   17600   -5381949.7    1459.3996    95.211054   -5524483.8    142534.08   -5381268.3   -19.510882   -19.510882    62.998045    82.966361 -0.067868537 
   17800   -5379681.3    1465.4709   -168.15714   -5522808.3    143127.03   -5380885.9    27.133104    27.133104    62.997845    83.078911 -0.068514696 
   18000   -5376227.2    1496.6419    1309.5823   -5522398.6    146171.39   -5366853.4   -34.949436   -34.949436    62.997645    82.955785 -0.067414906 
   18200   -5379987.5      1466.19    264.01983   -5523184.8    143197.27   -5378096.8    17.717528    17.717528    62.997445    82.822981 -0.067700638 
   18400     -5381581    1463.3929     1104.697   -5524505.1    142924.08   -5373684.3   -57.075413   -57.075413    62.997245    82.942531 -0.068578481 
   18600   -5377036.4    1474.2813    404.66384   -5521023.9    143987.51   -5374136.9      49.2003      49.2003    62.997045    83.193751 -0.070061968 
   18800   -5377916.6    1484.1138   -160.99652   -5522864.4    144947.81     -5379070   -60.946115   -60.946115    62.996845    83.002845  -0.07379948 
   19000   -5381980.7    1466.2277    1121.6784   -5525181.7    143200.95   -5373963.4   -8.0460584   -8.0460584    62.996645    82.984972 -0.077555802 
   19200   -5378712.8    1477.3212    2030.1535   -5522997.2    144284.41   -5364193.5    -9.086561    -9.086561    62.996445    83.156111 -0.079242462 
   19400     -5376377    1481.9323   -551.28635   -5521111.8    144734.75     -5380330   -28.601441   -28.601441    62.996245    83.058344 -0.081680891 
   19600   -5380639.6    1476.2323   -486.60733   -5524817.6    144178.06   -5384122.3   -16.422964   -16.422964    62.996045    83.040822 -0.085160968 
   19800   -5381275.7    1458.9483   -340.70234   -5523765.7       142490   -5383715.4    4.4808625    4.4808625    62.995845    83.235393 -0.088436529 
   20000   -5376685.4    1486.8197   -285.99422   -5521897.5    145212.09   -5378734.4    34.159494    34.159494    62.995645    82.932676 -0.086862043 
   20200   -5378753.5    1476.9459    61.487435   -5523001.3    144247.75     -5378313    24.440959    24.440959    62.995445    83.033977 -0.087179479 
   20400   -5382046.7    1465.2689   -241.76864     -5525154    143107.31   -5383776.4    24.182671    24.182671    62.995245    83.350188 -0.085109075 
   20600   -5377949.1    1480.0572   -410.32497   -5522500.7    144551.62     -5380889    4.9542697    4.9542697    62.995045     83.20994 -0.083669712 
   20800   -5376893.1      1483.47   -1846.3252     -5521778    144884.94   -5390141.9    10.553666    10.553666    62.994845    82.928106 -0.081100519 
   21000   -5381280.4    1461.6111   -1036.3634   -5524030.4    142750.06   -5388704.6    2.2658133    2.2658133    62.994645    83.257943 -0.081658839 
   21200   -5379902.2    1478.0361      2069.69   -5524256.4    144354.23     -5365118     23.14683     23.14683    62.994445    83.239176 -0.079527676 
   21400   -5376767.3    1475.4139   -731.87113   -5520865.5    144098.13   -5382016.4   -74.732416   -74.732416    62.994245    83.072154 -0.078005043 
   21600   -5379429.1    1466.0869   -465.17672   -5522616.3     143187.2   -5382761.5     38.34212     38.34212    62.994045    83.185234 -0.079326296 
   21800   -5381152.7    1463.7467    886.49478   -5524111.3    142958.64   -5374811.5   -29.755758   -29.755758    62.993845    82.946741 -0.079020494 
   22000   -5378091.4    1474.7065    1521.1172   -5522120.4    144029.04   -5367207.3   -65.782062   -65.782062    62.993645    82.952598 -0.079820366 
   22200   -5377919.6    1473.4516   -261.25475   -5521826.1    143906.48   -5379791.7   -68.013647   -68.013647    62.993445    83.081076 -0.080836791 
   22400     -5380587    1475.4384     320.6515   -5524687.6    144100.52   -5378293.7    38.681099    38.681099    62.993245    82.962708  -0.07976808 
   22600   -5380021.5    1463.0211    1121.3024   -5522909.3    142887.78   -5372000.7    1.6387901    1.6387901    62.993045    83.111291 -0.079819894 
   22800   -5377353.9    1479.0551   -927.51949   -5521807.7    144453.75   -5384003.3   -71.642988   -71.642988    62.992845    82.817897  -0.07692249 
   23000   -5379749.4    1469.4771   -900.89611   -5523267.7    143518.31   -5386199.5   -34.897178   -34.897178    62.992645    82.910928 -0.078980228 
   23200     -5380932    1469.7279    60.329158   -5524474.8     143542.8   -5380500.7  -0.14170228  -0.14170228    62.992445    82.996281 -0.081523321 
   23400   -5377732.2    1476.9339   -426.75244   -5521978.7    144246.58   -5380790.3    15.270621    15.270621    62.992245    82.876958 -0.085408119 
   23600   -5378142.1    1472.7608   -1.3011244   -5521981.1    143839.01   -5378151.4   -36.609545   -36.609545    62.992045    83.096408 -0.092626116 
   23800   -5381365.5    1461.1784   -976.78663   -5524073.3     142707.8   -5388361.8   -66.542231   -66.542231    62.991845    83.086504 -0.094838015 
   24000   -5378802.5    1481.4463    202.36053   -5523489.8    144687.29   -5377353.9    15.031379    15.031379    62.991645    82.927207 -0.099249869 
   24200   -5377218.7    1486.7347    1032.6323   -5522422.5    145203.79   -5369825.3    40.716196    40.716196    62.991445    83.020046  -0.10062603 
   24400   -5380522.4    1473.1956    834.50994   -5524403.9    143881.48   -5374555.1    7.3431897    7.3431897    62.991245    82.989648 -0.099722375 
   24600   -5380272.4    1466.8041   -355.52489   -5523529.7    143257.25   -5382819.1    25.437183    25.437183    62.991045    83.020627   -0.1005178 
   24800   -5377308.5    1482.5012    1028.2943   -5522098.9    144790.32   -5369950.1   -45.325925   -45.325925    62.990845    82.913177  -0.10121896 
   25000   -5379316.9    1475.5192    1159.8609   -5523425.4    144108.41   -5371022.5    59.426285    59.426285    62.990645    83.158281 -0.099011072 
   25200   -5381133.5    1470.6518      149.272   -5524766.6    143633.03     -5380066    6.9970144    6.9970144    62.990445     82.87536 -0.095520891 
   25400   -5378190.6    1478.8071    -1314.307   -5522620.2    144429.53   -5387611.9    24.876782    24.876782    62.990245    83.132425 -0.094884463 
   25600     -5377742     1479.174    -521.3804   -5522207.3    144465.37   -5381478.6    53.902663    53.902663    62.990045    83.249474 -0.093242126 
   25800   -5380767.9    1466.7765    -437.0858   -5524022.4    143254.54   -5383898.2    53.788629    53.788629    62.989845     83.21925 -0.092955896 
   26000   -5379500.2    1473.9121     999.3001   -5523451.6    143951.46   -5372348.2   -31.435817   -31.435817    62.989645    82.965201 -0.091985396 
   26200   -5377514.6    1476.9078    57.015799   -5521758.6    144244.03   -5377106.1   -8.2460586   -8.2460586    62.989445    83.242702 -0.090709153 
   26400   -5379546.8    1465.8004   -207.26111     -5522706    143159.21   -5381031.7   -11.866553   -11.866553    62.989245    82.898871 -0.089089198 
   26600   -5380261.9    1472.3632    637.19148     -5524062    143800.18   -5375703.4   -17.914596   -17.914596    62.989045    83.038285  -0.08744892 
   26800   -5378139.8    1483.0222   -431.83694     -5522981    144841.21   -5381234.3    58.178702    58.178702    62.988845    82.951939 -0.085956442 
   27000   -5378294.8    1478.4996    536.62928   -5522694.3     144399.5   -5374452.8   -15.751067   -15.751067    62.988645    82.764434 -0.085268792 
   27200   -5380434.8    1466.0829    505.19663   -5523621.6    143186.81   -5376819.9    15.236287    15.236287    62.988445    83.104287 -0.085821846 
   27400   -5379489.6     1467.056   -354.20935   -5522771.5    143281.84     -5382027   -3.0626486   -3.0626486    62.988245     82.93891 -0.088039075 
   27600   -5377843.6    1475.3571    312.16448   -5521936.2    144092.59   -5375607.7   -54.475559   -54.475559    62.988045    82.734266 -0.090563427 
   27800   -5379378.8    1472.5826   -1507.4761   -5523200.4    143821.61   -5390185.2   -120.55073   -120.55073    62.987845    82.999826 -0.093431603 
   28000   -5380438.7    1472.1332      573.889   -5524216.4    143777.71   -5376334.1   -25.075019   -25.075019    62.987645    82.939038 -0.096637736 
   28200   -5378052.5    1483.3948     154.5752   -5522930.1    144877.59   -5376946.1   -37.738569   -37.738569    62.987445    83.000264  -0.10282332 
   28400   -5378231.1    1472.4196   -347.96055   -5522036.7    143805.69   -5380724.1   -32.400376   -32.400376    62.987245    82.978778  -0.10573456 
   28600     -5380967    1460.6039   -385.83415   -5523618.7     142651.7   -5383730.3    15.893408    15.893408    62.987045    82.933165  -0.10837882 
   28800   -5378988.2    1474.2906   -376.79593   -5522976.6    143988.42   -5381686.8   -16.256162   -16.256162    62.986845    82.864085  -0.11081891 
   29000   -5377615.6    1469.6089    1134.4476   -5521146.8    143531.18   -5369492.2    9.2488891    9.2488891    62.986645    83.042942  -0.11022787 
   29200   -5380320.2    1462.9267    7.6240542   -5523198.8    142878.55   -5380265.6   -41.320158   -41.320158    62.986445    82.948783   -0.1093022 
   29400   -5380069.2    1467.9093   -1010.7271   -5523434.3    143365.18     -5387310     21.38871     21.38871    62.986245    83.260131   -0.1111095 
   29600     -5377679    1485.5494    294.66554   -5522767.1    145088.03   -5375569.2   -45.458886   -45.458886    62.986045    82.769001   -0.1122083 
   29800   -5379238.5    1470.7618    990.72918   -5522882.2    143643.77   -5372150.1   -10.799644   -10.799644    62.985845    83.087322  -0.11291585 
   30000   -5380701.5    1469.2477    117.39938   -5524197.4     143495.9   -5379861.5   -20.944426   -20.944426    62.985645    82.898961  -0.11489611 
   30200   -5378124.2     1471.364    1151.2703   -5521826.8    143702.59   -5369882.6    18.004725    18.004725    62.985445    82.989049  -0.11327353 
   30400   -5377883.2     1483.608   -970.89685   -5522781.7    144898.41   -5384842.9    61.917557    61.917557    62.985245    82.936914  -0.11288581 
   30600   -5380657.9    1480.2377   -580.96647   -5525227.2    144569.26   -5384817.3    -8.257341    -8.257341    62.985045    82.982944  -0.11155571 
   30800   -5379409.5    1477.6665    291.09879   -5523727.6    144318.13   -5377325.7    19.856143    19.856143    62.984845     83.04896  -0.10787178 
   31000   -5377423.3    1478.0322    40.422747   -5521777.1    144353.85   -5377133.6   -28.238412   -28.238412    62.984645    82.905685  -0.10557875 
   31200   -5379684.3    1471.9361   -318.17936   -5523442.8    143758.47   -5381961.9    18.921593    18.921593    62.984445    83.236745  -0.10482992 
   31400     -5380759    1465.8387   -524.93624     -5523922    143162.96   -5384517.5   -4.8789501   -4.8789501    62.984245    83.188214  -0.10297047 
   31600   -5378103.9     1489.654    442.06353   -5523592.8     145488.9   -5374939.2    8.6165081    8.6165081    62.984045    83.094481  -0.10207831 
   31800   -5378011.6     1481.662    546.01901     -5522720    144708.36   -5374103.4   -50.970262   -50.970262    62.983845    82.863829  -0.10566602 
   32000     -5380956    1462.4124    1069.5473   -5523784.3    142828.32   -5373306.7   -2.3554859   -2.3554859    62.983645    83.064979  -0.10635695 
   32200   -5379523.3    1477.8943    830.17652   -5523863.7    144340.38   -5373584.3   -42.332173   -42.332173    62.983445    83.021629  -0.10816908 
   32400   -5377236.7    1487.3006    474.41052   -5522495.8    145259.06   -5373839.9   -47.998767   -47.998767    62.983245    83.019294   -0.1109962 
   32600   -5379977.5     1468.006    562.26902   -5523352.1    143374.63   -5375953.8   -32.312949   -32.312949    62.983045    83.018559  -0.11426098 
   32800   -5380611.7    1463.6108   -1.5615411   -5523557.1    142945.37   -5380622.9    24.767366    24.767366    62.982845    82.991688  -0.11707727 
   33000   -5377505.7    1481.4109   -303.58999   -5522189.5    144683.83   -5379680.8    2.8220472    2.8220472    62.982645    83.148796  -0.11859522 
   33200   -5378212.8    1477.0428    258.79584   -5522470.1    144257.22     -5376360    22.308825    22.308825    62.982445    83.139128  -0.12340057 
   33400   -5381080.3    1477.6223    934.76447   -5525394.1    144313.81   -5374400.8   -26.161487   -26.161487    62.982245    82.898237  -0.12480473 
   33600   -5379010.3    1473.7107   -622.92574   -5522942.1    143931.78     -5383473     12.14734     12.14734    62.982045    83.121951  -0.12070893 
   33800   -5377555.9    1484.5043    1227.5309   -5522541.8    144985.95     -5368773   -40.267292   -40.267292    62.981845    83.076113  -0.12341553 
   34000   -5380143.4    1465.5309    598.78399   -5523276.3     143132.9   -5375859.2  0.044660794  0.044660794    62.981645    83.043544  -0.12642139 
   34200   -5380416.3    1473.0452   -911.53891   -5524283.1    143866.78     -5386946   -14.952559   -14.952559    62.981445    83.015235  -0.12797883 
   34400   -5377791.2    1484.1737    -235.5661   -5522744.9    144953.67   -5379478.4    9.9480842    9.9480842    62.981245    83.344531  -0.12860983 
   34600   -5378502.9      1474.31   -563.99945   -5522493.2    143990.32   -5382545.1   -11.461434   -11.461434    62.981045    83.072218  -0.12477984 
   34800   -5380763.1    1483.6665    1097.6624   -5525667.3    144904.13   -5372919.1    35.530294    35.530294    62.980845    83.056149   -0.1227005 
   35000   -5378790.2    1468.9947    470.17918   -5522261.4    143471.19   -5375424.9   -112.39241   -112.39241    62.980645    82.853221   -0.1236087 
   35200   -5377590.6    1479.5418   -852.13878   -5522091.9    144501.29   -5383698.1    25.756751    25.756751    62.980445    83.023843  -0.11902376 
   35400   -5380428.8    1467.2657    292.73815   -5523731.2    143302.32   -5378334.3     47.97869     47.97869    62.980245    83.237808  -0.11570326 
   35600   -5380351.1    1461.5872    427.91915   -5523098.9    142747.73   -5377288.9    41.451506    41.451506    62.980045     83.10806  -0.11376844 
   35800     -5377147    1468.8345     1164.218   -5520602.6    143455.54   -5368810.1    38.912038    38.912038    62.979845    82.977978  -0.10990698 
   36000   -5378837.4    1477.3683    259.91735   -5523126.4    144289.01   -5376976.8    71.694554    71.694554    62.979645    83.183643  -0.10726416 
   36200   -5381515.6    1458.0783   -2033.4684   -5523920.6    142405.03   -5396089.4    29.333099    29.333099    62.979445    83.149319  -0.10787338 
   36400   -5378238.9    1476.5504      68.2226     -5522448    144209.13   -5377750.5    -39.60827    -39.60827    62.979245    82.750463  -0.11005051 
   36600   -5377622.7     1479.981    40.755042   -5522166.8    144544.18   -5377330.8    9.2713936    9.2713936    62.979045    83.028744  -0.11416804 
   36800   -5381231.4    1458.4105   -326.06338   -5523668.9    142437.47   -5383565.5    21.538959    21.538959    62.978845    83.276386  -0.11517671 
   37000   -5379558.2    1470.1155    838.71837   -5523138.9    143580.65   -5373556.1    16.638683    16.638683    62.978645    83.048449  -0.11720537 
   37200   -5376774.9    1492.6227    60.206687   -5522553.8    145778.85   -5376343.7    13.457484    13.457484    62.978445    82.872964  -0.11959249 
   37400   -5379977.9    1467.4515   -329.46312   -5523298.4    143320.48   -5382336.6    11.916862    11.916862    62.978245     83.04472  -0.12131936 
   37600   -5380949.5    1472.2774   -272.85492   -5524741.3     143791.8   -5382901.8   -69.548433   -69.548433    62.978045    82.878393  -0.12431981 
   37800   -5377283.2    1481.7156   -165.25416   -5521996.8    144713.59     -5378467   -16.761457   -16.761457    62.977845    82.914863  -0.12705911 
   38000   -5378375.9    1467.2532   -389.64953   -5521677.1    143301.11   -5381167.5    10.816647    10.816647    62.977645    83.033463  -0.12961411 
   38200   -5381513.3    1462.2666    174.87945   -5524327.4    142814.09   -5380262.4    30.533357    30.533357    62.977445    83.074262  -0.12924929 
   38400   -5378756.1    1475.5157    239.75336   -5522864.2    144108.08   -5377039.5   -32.914943   -32.914943    62.977245    82.993337  -0.12861085 
   38600   -5376888.1    1486.4586    247.85597   -5522064.9    145176.82   -5375112.5    31.241948    31.241948    62.977045    83.094922  -0.13196296 
   38800   -5380887.4    1452.0983    843.98535   -5522708.4    141820.98   -5374849.4    34.925814    34.925814    62.976845    82.895671  -0.13386263 
   39000   -5380630.8    1466.9619    -636.1913   -5523903.5    143272.66   -5385186.3   -69.775419   -69.775419    62.976645    82.924989  -0.13292961 
   39200   -5377216.1    1484.4284   -16.084746   -5522194.6    144978.54   -5377331.3    96.933563    96.933563    62.976445    83.318361  -0.13190254 
   39400   -5378936.4    1476.7644     341.9556   -5523166.4    144230.03   -5376488.5   -19.142754   -19.142754    62.976245    83.105233  -0.12859686 
   39600   -5381246.5    1457.6025   -597.75137     -5523605    142358.56   -5385528.1   -36.027165   -36.027165    62.976045    83.047922  -0.12442584 
   39800   -5378178.5    1482.3648   -234.97071   -5522955.5    144776.99   -5379861.6    18.467335    18.467335    62.975845    83.226276  -0.12255724 
   40000   -5377397.3    1487.2101    6.0883633   -5522647.5    145250.22   -5377353.7     116.2443     116.2443    62.975645    83.095555  -0.12043504 
   40200   -5380845.5    1465.2677    113.30592   -5523952.7    143107.19   -5380034.6   -6.7814697   -6.7814697    62.975445    83.150963  -0.11928299 
   40400   -5379997.5    1464.9697    315.71499   -5523075.6    143078.09   -5377737.9    26.996137    26.996137    62.975245     83.07493  -0.11715262 
   40600   -5377266.7    1487.9115    398.69707   -5522585.4    145318.73   -5374411.9   -104.79334   -104.79334    62.975045    82.809741  -0.11661144 
   40800   -5379411.4    1476.3053    218.27573   -5523596.6    144185.19   -5377849.2    41.821754    41.821754    62.974845    83.060693  -0.11775008 
   41000   -5380912.2    1471.4366   -540.11599   -5524621.9    143709.68   -5384779.7    15.654844    15.654844    62.974645    83.167615  -0.12030134 
   41200   -5377852.9    1481.8022   -728.92407     -5522575    144722.05   -5383075.5   -42.966401   -42.966401    62.974445    82.948091  -0.12115972 
   41400   -5378087.1    1475.9093    532.28337   -5522233.6    144146.52   -5374275.7    11.807074    11.807074    62.974245    83.380689  -0.12089824 
   41600   -5381202.6    1465.1268   -687.52705   -5524296.1    143093.43   -5386125.3    18.454024    18.454024    62.974045    83.097391  -0.12264672 
   41800     -5379283    1477.0135   -487.49745   -5523537.4    144254.36     -5382774   -110.20616   -110.20616    62.973845    82.527095  -0.12533329 
   42000   -5377065.1    1492.5723    -27.93305     -5522839    145773.92   -5377265.1   -22.670445   -22.670445    62.973645    82.898058  -0.12595112 
   42200   -5380159.7    1467.4078    545.80057   -5523475.9     143316.2   -5376253.9   -33.828464   -33.828464    62.973445     82.85149   -0.1301764 
   42400   -5380543.3    1467.6398     51.55827   -5523882.1    143338.86   -5380174.5    28.221501    28.221501    62.973245    82.846069  -0.13117632 
   42600   -5377624.2    1485.4961    410.24732     -5522707    145082.82   -5374686.6    2.3634322    2.3634322    62.973045    82.960766  -0.13574573 
   42800   -5378735.4      1468.64    887.07829   -5522171.9    143436.55   -5372388.9    22.643609    22.643609    62.972845    83.151043   -0.1372683 
   43000   -5380936.1    1466.5669   -690.83462   -5524170.2    143234.08   -5385882.6    2.8580788    2.8580788    62.972645    82.998067    -0.142259 
   43200   -5378626.2    1476.0465    483.38215   -5522786.1    144159.91   -5375166.7    13.901026    13.901026    62.972445    83.087103  -0.14461489 
   43400     -5377838    1483.3945    1135.3639   -5522715.6    144877.57   -5369715.2   -2.7112349   -2.7112349    62.972245    82.804769  -0.14481323 
   43600   -5380544.7    1454.3871    642.16845   -5522589.3    142044.52   -5375949.7    14.963188    14.963188    62.972045    82.871516  -0.14429994 
   43800   -5379960.2    1470.9842    213.07835   -5523625.7     143665.5   -5378435.5   -108.67526   -108.67526    62.971845    83.018569  -0.14435763 
   44000   -5377668.6    1469.1652   -22.184927   -5521156.5    143487.85   -5377827.6    87.691709    87.691709    62.971645    83.291594  -0.14183513 
   44200   -5379025.4    1476.0072      1105.32   -5523181.4    144156.08   -5371118.6   -2.3679449   -2.3679449    62.971445    82.932452  -0.13719624 
   44400   -5380753.6    1461.3667   -418.05988   -5523479.8    142726.19     -5383746    40.880818    40.880818    62.971245    83.002176  -0.13674412 
   44600   -5378580.5    1479.5425    457.47915   -5523081.9    144501.35   -5375305.6   -34.448767   -34.448767    62.971045    83.152139  -0.13379392 
   44800   -5377770.3    1480.2541    182.43032   -5522341.1    144570.85   -5376463.5    13.954127    13.954127    62.970845    82.969413  -0.13484275 
   45000   -5380237.4    1474.0111   -257.00733   -5524198.5    143961.12   -5382077.1   -54.440734   -54.440734    62.970645     83.12673    -0.132021 
   45200   -5379434.2    1482.1414    -1447.776   -5524189.4    144755.18   -5389808.4   -24.883574   -24.883574    62.970445    83.094749  -0.13071123 
   45400   -5377971.3    1479.5541   -474.78943   -5522473.8    144502.49   -5381374.1   -16.150939   -16.150939    62.970245    83.072991   -0.1300499 
   45600   -5379723.4    1481.0017   -156.69674   -5524367.3    144643.87   -5380844.9    13.904019    13.904019    62.970045    83.075424  -0.13142424 
   45800   -5379970.4     1465.416   -500.50347     -5523092    143121.68   -5383554.8     15.57769     15.57769    62.969845    82.926348  -0.13292401 
   46000     -5378062    1486.6895    967.62817   -5523261.4    145199.37   -5371140.3    32.302087    32.302087    62.969645    83.145799  -0.13184662 
   46200   -5378884.1    1480.4421    731.91775   -5523473.3    144589.22   -5373649.1    8.8135779    8.8135779    62.969445    83.086074  -0.13057738 
   46400   -5380689.3    1463.2194   -1265.7782   -5523596.4    142907.14   -5389758.5     19.23176     19.23176    62.969245    83.030274  -0.13469316 
   46600     -5378297    1483.6742    869.43951   -5523201.9    144904.88   -5372077.5    8.4898447    8.4898447    62.969045    83.052856  -0.13451957 
   46800   -5377992.4     1476.396   -232.45133   -5522186.4    144194.05   -5379657.8   -62.861081   -62.861081    62.968845     82.87346  -0.13807556 
   47000   -5380413.2     1474.193    701.32474   -5524392.1    143978.89   -5375398.3   -22.997687   -22.997687    62.968645    82.782607   -0.1427485 
   47200   -5379735.7    1462.9912   -1018.5129   -5522620.6    142884.85   -5387032.7   -29.290547   -29.290547    62.968445    83.052155  -0.14862912 
   47400   -5377936.7     1473.349   -63.001597   -5521833.1    143896.46     -5378388   -34.266489   -34.266489    62.968245    83.200498   -0.1525848 
   47600   -5379469.9    1472.3307    863.12087   -5523266.9       143797     -5373295   -57.883748   -57.883748    62.968045    82.724571  -0.15395136 
   47800   -5380614.8    1473.1974   -243.69548   -5524496.5    143881.65   -5382359.6  0.062033993  0.062033993    62.967845    83.054017  -0.15192203 
   48000   -5378370.2    1474.8958      129.454   -5522417.8    144047.53   -5377443.2   -35.547939   -35.547939    62.967645    83.115277  -0.15054849 
   48200   -5378083.3     1473.742    767.72346   -5522018.2    143934.84   -5372586.3    29.059687    29.059687    62.967445    83.150177  -0.15117711 
   48400   -5380633.4    1468.0448   -428.12343   -5524011.8    143378.41   -5383698.7   -6.6778465   -6.6778465    62.967245    83.069445  -0.14964392 
   48600   -5379012.5    1478.3683   -1159.5716   -5523399.1    144386.68   -5387321.1    45.836434    45.836434    62.967045    83.155079  -0.14707975 
   48800   -5377797.2    1479.1139   -78.851283   -5522256.7     144459.5   -5378362.1    13.553135    13.553135    62.966845    82.813708  -0.14282397 
   49000   -5380046.4    1464.8424   -539.35236     -5523112    143065.65   -5383910.7   -41.094031   -41.094031    62.966645    82.912436  -0.14167898 
   49200   -5379938.3    1471.5966     250.3359   -5523663.6     143725.3   -5378146.3    15.912481    15.912481    62.966445    83.071312   -0.1402742 
   49400   -5377608.9    1476.8349    852.89459   -5521845.8    144236.91   -5371503.3   -54.551602   -54.551602    62.966245    83.064072   -0.1379995 
   49600     -5379083    1466.7633   -269.79025   -5522336.3    143253.26   -5381014.8    79.229586    79.229586    62.966045    83.375104   -0.1397954 
   49800   -5381063.3    1465.6946    439.73455   -5524212.2    143148.88   -5377917.6    4.5099384    4.5099384    62.965845    83.092822  -0.13920085 
   50000   -5378510.5    1478.8097   -724.20854   -5522940.3    144429.78   -5383700.2   -47.212596   -47.212596    62.965645    82.714057  -0.13665425 
   50200   -5377623.9    1477.1384    -1076.543   -5521890.4    144266.56   -5385345.7     30.10571     30.10571    62.965445    82.979347  -0.13542506 
   50400   -5380239.9    1468.8747    121.92142   -5523699.4    143459.47   -5379367.5   -19.347246   -19.347246    62.965245    82.943478  -0.13338079 
   50600   -5379963.7    1468.9044   -505.12289   -5523426.1    143462.38   -5383580.9   -54.693362   -54.693362    62.965045    83.090714  -0.13501525 
   50800   -5378027.4    1485.5402    -638.5496   -5523114.5    145087.13   -5382601.5    22.966921    22.966921    62.964845    83.110315  -0.13633613 
   51000   -5378754.9    1475.7001     86.19912     -5522881    144126.08   -5378137.9   -36.426739   -36.426739    62.964645    82.994916  -0.13926404 
   51200   -5380703.2    1459.4684    313.44761     -5523244    142540.79   -5378460.9   -47.470379   -47.470379    62.964445    82.809861  -0.14137214 
   51400   -5378890.7    1474.2284   -1184.1578   -5522873.1    143982.34   -5387378.2    45.452125    45.452125    62.964245    82.949981  -0.14660972 
   51600   -5377568.2     1487.634   -9.5368332   -5522859.9    145291.62   -5377636.5   -26.631981   -26.631981    62.964045    82.821535  -0.15040363 
   51800   -5380098.5     1466.346    527.39283     -5523311     143212.5   -5376324.5   -14.531544   -14.531544    62.963845     83.26302   -0.1536451 
   52000   -5380017.5    1473.0911    315.34593   -5523888.8    143871.27   -5377760.8    56.983945    56.983945    62.963645    83.299655  -0.15575324 
   52200   -5377587.7     1477.852    186.63464   -5521923.9    144336.25   -5376251.2   -66.170071   -66.170071    62.963445    83.093458  -0.15760642 
   52400   -5378951.6    1475.7967    544.67679   -5523087.1    144135.52   -5375052.4   -28.990965   -28.990965    62.963245    82.907578  -0.15880043 
   52600   -5380799.6    1475.5626    1041.9617   -5524912.3    144112.65   -5373350.7    20.510064    20.510064    62.963045      82.9746  -0.15557069 
   52800   -5378697.2    1480.4723   -455.62671   -5523289.4    144592.16   -5381960.3   -33.362722   -33.362722    62.962845    83.039536  -0.15400101 
   53000     -5377649    1479.4275   -326.23038   -5522139.1    144490.13   -5379987.8    34.471167    34.471167    62.962645    83.131169   -0.1547382 
   53200   -5380546.1    1467.8621   -1230.2954   -5523906.6    143360.58   -5389361.3   -19.606469   -19.606469    62.962445    83.062918  -0.15283926 
   53400   -5379667.5    1466.4118    334.78782   -5522886.4    143218.93   -5377270.3    26.555464    26.555464    62.962245    83.199097  -0.15119785 
   53600   -5377369.2    1486.5122   -24.524894   -5522551.3    145182.06   -5377544.9    17.802279    17.802279    62.962045    82.861966  -0.15160826 
   53800   -5379258.1    1462.8527    716.95006   -5522129.4    142871.33   -5374123.6   -42.109225   -42.109225    62.961845    83.170612  -0.14635883 
   54000   -5380550.5    1455.5556   -810.59848   -5522709.2    142158.64   -5386361.1   -22.254706   -22.254706    62.961645    83.383952  -0.14785545 
   54200   -5378414.8    1472.2776    337.73999   -5522206.6    143791.82   -5375995.9    40.884406    40.884406    62.961445    83.151743  -0.14672789 
   54400   -5378066.6    1473.2673   -694.85264     -5521955    143888.48   -5383046.3     25.22145     25.22145    62.961245    83.194699  -0.14463233 
   54600   -5380254.7    1470.5409    201.89943   -5523876.9    143622.21   -5378809.7    37.248917    37.248917    62.961045    82.962183  -0.14356101 
   54800   -5379805.9    1470.6836   -527.83905     -5523442    143636.14   -5383585.4    51.340335    51.340335    62.960845    83.399069  -0.14343751 
   55000   -5377929.8    1481.5252    -700.1828   -5522624.8       144695   -5382947.4   -30.212254   -30.212254    62.960645    82.935546  -0.14190572 
   55200   -5379298.7    1473.1721   -132.06917   -5523177.9    143879.18   -5380244.4   -41.038618   -41.038618    62.960445    82.877702  -0.14096436 
   55400     -5380375    1475.1575    422.07632   -5524448.1    144073.09   -5377355.7    3.5804912    3.5804912    62.960245    83.081104  -0.14356819 
   55600   -5378487.4    1472.1767    122.62763   -5522269.4    143781.97   -5377609.3    9.6305302    9.6305302    62.960045    82.890213  -0.14827675 
   55800   -5378410.5    1473.7525    575.79578   -5522346.4    143935.87   -5374289.3   -20.056296   -20.056296    62.959845    83.188884  -0.15049248 
   56000     -5380371    1472.3132   -940.07006   -5524166.3     143795.3   -5387103.4    60.464296    60.464296    62.959645    83.218386  -0.15448362 
   56200   -5379156.6    1466.4337   -17.582091   -5522377.6    143221.07   -5379282.4   -5.3644612   -5.3644612    62.959445    83.031983  -0.15755042 
   56400   -5377831.1    1493.7017    -325.9434   -5523715.3    145884.23   -5380165.9  -0.98089658  -0.98089658    62.959245    83.061315  -0.16182444 
   56600   -5379711.2    1464.0656   -535.01511     -5522701    142989.78   -5383543.6    17.619833    17.619833    62.959045    83.050597  -0.16183631 
   56800   -5380199.3    1471.9787   -144.61514   -5523961.9    143762.63   -5381234.4    23.227536    23.227536    62.958845    83.042284   -0.1626121 
   57000   -5378097.6    1491.4987   -74.999779   -5523766.6    145669.07   -5378634.4      18.8927      18.8927    62.958645    83.042288  -0.16244835 
   57200   -5378722.4    1467.6008     680.8275   -5522057.5    143335.06   -5373849.2    24.959908    24.959908    62.958445    83.044954  -0.16156616 
   57400     -5380286    1476.5383     531.8492     -5524494    144207.94   -5376481.7    69.117575    69.117575    62.958245     83.25403  -0.16037761 
   57600   -5379350.9     1465.755     -814.265   -5522505.7    143154.78   -5385186.2   -8.5693729   -8.5693729    62.958045    82.937416  -0.15973992 
   57800   -5377725.5    1469.6901   -860.07497   -5521264.6     143539.1   -5383894.8   -20.640896   -20.640896    62.957845    82.762864  -0.15803275 
   58000   -5379829.5    1475.7815    420.27992   -5523963.6    144134.03   -5376823.5   -12.825725   -12.825725    62.957645    82.894888  -0.15670905 
   58200   -5380325.5    1474.6503   -434.01901   -5524349.1    144023.55   -5383432.3   -15.769848   -15.769848    62.957445     83.11304  -0.15636451 
   58400   -5378264.5    1472.3931    183.95101   -5522067.6     143803.1   -5376947.2    9.4406403    9.4406403    62.957245    83.132285  -0.15668401 
   58600   -5378725.7    1468.8738    87.494903     -5522185    143459.38   -5378099.2   -10.204817   -10.204817    62.957045    83.046997  -0.15627346 
   58800   -5380442.5    1470.9115   -249.14442   -5524100.9     143658.4   -5382225.5   -22.221738   -22.221738    62.956845    83.027114  -0.15293664 
   59000   -5378846.1    1475.7436    23.174413   -5522976.4    144130.33   -5378680.2    22.020405    22.020405    62.956645    83.069397  -0.14904229 
   59200   -5378216.7    1477.2193    38.606439   -5522491.1    144274.46   -5377940.2     17.93335     17.93335    62.956445    83.071734  -0.14778204 
   59400   -5380239.3     1460.767    37.690028   -5522906.9    142667.62   -5379969.5    -34.32313    -34.32313    62.956245    82.989758  -0.14519568 
   59600   -5379537.5    1469.3866   -112.24541     -5523047    143509.46   -5380341.2   -16.419302   -16.419302    62.956045    82.877257  -0.14609328 
   59800   -5378003.1    1476.3958    230.21117   -5522197.2    144194.03   -5376354.1   -55.110126   -55.110126    62.955845    83.064232  -0.15049308 
   60000   -5378984.6    1481.4831    68.575056   -5523675.4    144690.88   -5378493.7   -38.249051   -38.249051    62.955645    82.857764    -0.154516 
   60200   -5380466.6    1465.4671     1251.952   -5523593.2    143126.67   -5371512.1     3.231115     3.231115    62.955445    83.228043  -0.15829998 
   60400     -5378330    1485.8282    152.69496   -5523445.2    145115.25   -5377236.9   -31.530378   -31.530378    62.955245    82.925934   -0.1615471 
   60600   -5378191.9    1482.1023    729.32621   -5522943.2    144751.36   -5372972.9   -60.217889   -60.217889    62.955045    82.965575  -0.16168015 
   60800   -5380147.2    1468.3477   -347.33784   -5523555.2       143408   -5382634.6    30.848155    30.848155    62.954845    82.906948  -0.16467846 
   61000   -5379459.5    1474.7087   -469.86688   -5523488.7    144029.26   -5382825.7   -4.7353286   -4.7353286    62.954645    82.984606  -0.16848369 
   61200   -5377955.4    1477.8359   -985.65074   -5522290.1    144334.67   -5385022.2   -7.0549404   -7.0549404    62.954445    82.877591  -0.17057747 
   61400     -5379543    1477.0512    21.265665   -5523801.1    144258.03   -5379390.9    9.6139274    9.6139274    62.954245    83.088035   -0.1714761 
   61600   -5380100.8    1462.2758   -1206.4971   -5522915.8    142814.98   -5388751.4   -7.9229203   -7.9229203    62.954045    82.948247  -0.17266238 
   61800   -5378368.2    1485.0603     727.5103   -5523408.5    145040.26   -5373160.5    96.266735    96.266735    62.953845    83.110547  -0.17271219 
   62000   -5378524.7    1473.2651   -569.68378     -5522413    143888.26   -5382605.8    34.562354    34.562354    62.953645    82.949158  -0.17100237 
   62200   -5380153.1    1463.7922    935.46627   -5523116.2    142963.08   -5373461.4    20.199273    20.199273    62.953445    83.092994  -0.16946091 
   62400   -5379588.4    1474.2402    -654.3169   -5523571.9     143983.5   -5384275.9   -83.730484   -83.730484    62.953245    83.043807  -0.16910967 
   62600   -5377879.3     1482.667    956.73943   -5522685.8    144806.52   -5371030.9    -32.77847    -32.77847    62.953045     82.91672  -0.16768936 
   62800   -5379341.4    1471.3804   -1070.6748   -5523045.6     143704.2   -5387015.2    25.656932    25.656932    62.952845    83.213967  -0.16709205 
   63000   -5380075.5    1481.2434   -674.29896     -5524743    144667.47   -5384903.5    21.702913    21.702913    62.952645    83.320015  -0.16140525 
   63200   -5377954.5    1478.3683   -926.91896   -5522341.2    144386.67   -5384601.3   -20.595464   -20.595464    62.952445    83.270976  -0.16003655 
   63400   -5378572.2    1466.9108   -891.61782   -5521839.9    143267.66   -5384968.5    109.75996    109.75996    62.952245    83.424204  -0.15678653 
   63600   -5380530.4    1464.2537    459.94801   -5523538.5    143008.15     -5377239   0.27943784   0.27943784    62.952045    83.105174  -0.15505057 
   63800     -5379160    1454.2265   -211.09109   -5521188.8    142028.83   -5380672.6     27.31616     27.31616    62.951845     83.27159  -0.15352795 
   64000   -5378182.4    1476.8522    179.59058     -5522421     144238.6   -5376896.3    47.520852    47.520852    62.951645    82.915567  -0.15519499 
   64200     -5379634    1468.8959    675.57459   -5523095.6    143461.54   -5374799.9   -7.8256752   -7.8256752    62.951445    82.752178  -0.15610683 
   64400   -5380178.5    1463.9392    -490.0281     -5523156    142977.44   -5383687.9    42.958947    42.958947    62.951245     83.36001  -0.15534591 
   64600   -5378219.6    1480.8088   -209.49107   -5522844.6    144625.03     -5379719   -15.687832   -15.687832    62.951045    82.833725  -0.15761434 
   64800   -5378683.4    1476.2376    27.425452   -5522861.9    144178.58     -5378487   -7.9568223   -7.9568223    62.950845    82.863315  -0.15723811 
   65000     -5380396    1463.1853    81.071844   -5523299.8    142903.81   -5379815.6    7.6474017    7.6474017    62.950645    83.034513  -0.16162387 
   65200   -5379158.4    1472.5737    842.19002   -5522979.1    143820.74   -5373132.9   -48.695873   -48.695873    62.950445    83.016041  -0.16109192 
   65400   -5377983.8    1477.7765   -810.76257   -5522312.6    144328.87   -5383792.7    -19.08595    -19.08595    62.950245    83.029477  -0.16381471 
   65600   -5379845.9    1476.4545    -436.2089   -5524045.7    144199.76   -5382968.7    74.463977    74.463977    62.950045    82.910739  -0.16256634 
   65800   -5379909.9     1468.636   -157.10614   -5523346.1    143436.15   -5381035.1   -55.015803   -55.015803    62.949845    82.808824  -0.16473159 
   66000   -5378203.8    1473.3802   -67.981352   -5522103.3    143899.51   -5378690.9   0.72966099   0.72966099    62.949645    83.023647  -0.16650425 
   66200   -5379061.4    1475.6829   -655.88254   -5523185.8    144124.41   -5383760.5    29.552932    29.552932    62.949445    82.872895  -0.16850006 
   66400   -5380318.7    1470.6916    633.79044   -5523955.7    143636.92   -5375785.1    1.1521244    1.1521244    62.949245    82.751445  -0.16949228 
   66600   -5378436.2    1480.8001   -89.849112   -5523060.4    144624.18   -5379079.7     28.72779     28.72779    62.949045    83.163696  -0.17194742 
   66800   -5378321.1    1476.3295   -461.57481   -5522508.6    144187.55   -5381627.8   -38.970857   -38.970857    62.948845    82.735258  -0.17300897 
   67000   -5380429.8    1462.5807     231.7672   -5523274.6    142844.76   -5378770.6    37.382924    37.382924    62.948645     82.92453  -0.16981354 
   67200   -5379156.2    1468.4624   -760.54665   -5522575.4     143419.2     -5384607    56.575172    56.575172    62.948445    83.013395  -0.16659703 
   67400   -5378038.4    1486.3267    180.56174   -5523202.4    145163.94     -5376746   -38.340219   -38.340219    62.948245    83.118573   -0.1636202 
   67600   -5379895.5    1472.4656    475.13796   -5523705.7    143810.18   -5376496.6    12.818085    12.818085    62.948045    83.317566  -0.16075349 
   67800   -5380005.9    1475.8269    801.35145   -5524144.3    144138.47   -5374274.1    63.212336    63.212336    62.947845    83.057191   -0.1585236 
   68000   -5378069.3    1468.5129   -523.88455   -5521493.4    143424.13   -5381823.5    64.653352    64.653352    62.947645     83.33293  -0.15634694 
   68200   -5379000.6    1468.1299    518.78474   -5522387.3    143386.73   -5375286.4    -35.74356    -35.74356    62.947445    83.203978  -0.15266698 
   68400   -5380555.9    1465.8872    805.62552   -5523723.6    143167.69   -5374792.6   -7.1013718   -7.1013718    62.947245     83.15243  -0.15338706 
   68600     -5378595    1475.3396   -1211.5422   -5522685.9    144090.87   -5387277.1     48.56242     48.56242    62.947045    83.101333  -0.15528703 
   68800   -5378411.4    1471.4468     223.3763   -5522122.1    143710.68   -5376812.2    8.3205267    8.3205267    62.946845    82.968421  -0.15539767 
   69000   -5380540.9    1466.4651    574.31918     -5523765    143224.14   -5376433.4   -58.526064   -58.526064    62.946645    82.880001  -0.15830514 
   69200   -5379714.9    1479.4341   -448.31131   -5524205.7    144490.76   -5382924.4   -49.326216   -49.326216    62.946445     82.88749  -0.16051273 
   69400     -5377712    1480.8284    338.44298   -5522338.9    144626.95   -5375288.3   -47.498775   -47.498775    62.946245    82.959145  -0.16221035 
   69600   -5379329.4    1471.0914   -299.32711   -5523005.4    143675.96     -5381473   -9.1545729   -9.1545729    62.946045    83.126875  -0.16235085 
   69800   -5380720.4    1466.1333    180.75824   -5523912.2    143191.73   -5379426.8   -8.2641896   -8.2641896    62.945845    83.011988  -0.16520324 
   70000   -5378184.7    1481.2305   -131.82703   -5522850.9    144666.21   -5379128.8   -57.350968   -57.350968    62.945645    82.785622  -0.16507515 
   70200   -5378259.2    1474.5245    -700.1212   -5522270.5    144011.27   -5383276.3    -46.88531    -46.88531    62.945445    82.749692  -0.16485052 
   70400   -5380614.2    1470.9283   -1342.0196   -5524274.2    143660.04   -5390224.8    24.680258    24.680258    62.945245    82.998287  -0.16844581 
   70600     -5379240    1465.8326    496.86931   -5522402.4    143162.36   -5375683.4   -19.272499   -19.272499    62.945045    82.848048  -0.17109069 
   70800   -5377637.6    1472.6738   -131.52681   -5521468.1    143830.51   -5378579.7    32.003577    32.003577    62.944845    83.002109  -0.17009823 
   71000   -5380290.9    1456.2336   -249.60759   -5522515.7    142224.86   -5382078.5   -18.532019   -18.532019    62.944645    82.843446  -0.17150016 
   71200   -5380292.7    1473.2278    1332.2062   -5524177.3    143884.62   -5370768.6    21.274853    21.274853    62.944445    83.242979  -0.16955098 
   71400   -5377424.6    1488.0587   -363.55456   -5522757.7     145333.1   -5380028.8    39.152418    39.152418    62.944245    82.756798  -0.16761871 
   71600   -5379306.6    1470.6665    336.72321   -5522941.1    143634.47   -5376896.3   -30.258583   -30.258583    62.944045    83.081738  -0.16678895 
   71800   -5380913.1    1468.5345    453.05794   -5524339.4    143426.24   -5377671.8   -9.1643418   -9.1643418    62.943845    83.146007  -0.16116457 
   72000   -5378305.8    1477.7573   -120.01709   -5522632.8       144327   -5379165.2     42.30648     42.30648    62.943645    83.129713   -0.1594575 
   72200   -5377698.2    1472.1192    60.581157   -5521474.6    143776.35   -5377264.2   -10.511072   -10.511072    62.943445    83.198772  -0.15562969 
   72400   -5380904.6    1464.3595    1018.8154     -5523923    143018.49   -5373625.1    18.832327    18.832327    62.943245    82.955715  -0.15488856 
   72600   -5380092.1    1468.1389   -860.06036   -5523479.8     143387.6   -5386252.6    30.506115    30.506115    62.943045    82.779026  -0.15268566 
   72800   -5376995.8    1487.1641    -374.4281   -5522241.5    145245.73   -5379679.8   -50.450935   -50.450935    62.942845    82.822988  -0.15257801 
   73000   -5379100.8    1468.8631   -218.22857   -5522559.1    143458.34   -5380663.9   -5.3014705   -5.3014705    62.942645    82.977681  -0.15076139 
   73200   -5381546.2    1467.0376    335.14687   -5524826.2    143280.05   -5379149.8    7.8157338    7.8157338    62.942445    83.167599  -0.15471836 
   73400   -5378361.8    1482.4822    81.308638   -5523150.3    144788.47   -5377779.8   -28.565885   -28.565885    62.942245    83.268054  -0.15420671 
   73600   -5377454.6    1482.9027    28.739778   -5522284.1    144829.53   -5377248.8 -0.037496053 -0.037496053    62.942045    83.120561  -0.15244118 
   73800   -5380932.4    1468.9308   -848.20936   -5524397.3    143464.95   -5387006.4   -56.066972   -56.066972    62.941845    82.717138  -0.15444048 
   74000   -5380047.6    1468.9113   -1108.2326   -5523510.7    143463.04   -5387985.1    44.665752    44.665752    62.941645    83.063744  -0.15678987 
   74200   -5376890.1    1481.5223    241.45543   -5521584.8    144694.72   -5375160.8   -26.666054   -26.666054    62.941445    83.147648  -0.15961081 
   74400   -5379295.1     1465.402   -349.51028   -5522415.4     143120.3   -5381798.5   -34.689419   -34.689419    62.941245    82.745761  -0.16059862 
   74600   -5381567.8    1457.1299   -1241.7728   -5523880.2     142312.4   -5390462.1   -4.1058935   -4.1058935    62.941045     82.97944  -0.16202792 
   74800   -5377810.4     1477.955   -669.10794   -5522156.7    144346.31   -5382607.6   -41.702398   -41.702398    62.940845    82.699866  -0.16240329 
   75000   -5377547.2    1472.5915   -644.15085   -5521369.7    143822.48   -5382163.6   -24.537535   -24.537535    62.940645    82.878067  -0.16866231 
   75200   -5381299.7    1466.9762   -763.33667   -5524573.8    143274.05   -5386763.7   -3.7710317   -3.7710317    62.940445    82.915821  -0.16811315 
   75400   -5379599.2    1481.0427    295.46372   -5524247.1    144647.87   -5377485.8   -21.331687   -21.331687    62.940245    83.005775   -0.1697125 
   75600   -5376852.6    1485.3711    420.38103   -5521923.2    145070.61     -5373842   -12.580975   -12.580975    62.940045    82.987283  -0.16957828 
   75800   -5379931.5    1470.0438   -47.111143   -5523505.1    143573.65   -5380268.7    39.088276    39.088276    62.939845    82.904789  -0.16898575 
   76000   -5380788.4    1466.3478    131.36663   -5524001.1    143212.68   -5379848.3   -15.200091   -15.200091    62.939645    83.180303  -0.16741447 
   76200   -5377458.8    1473.9239    337.96491   -5521411.4    143952.61   -5375037.9    53.063536    53.063536    62.939445    83.165068  -0.16505868 
   76400   -5378435.4    1481.4631   -203.37953   -5523124.3    144688.93   -5379892.3      10.4858      10.4858    62.939245    82.975617  -0.16071871 
   76600   -5381165.5    1461.8388    522.44342   -5523937.8     142772.3   -5377427.2    19.566196    19.566196    62.939045    83.063625  -0.15952228 
   76800   -5378726.8    1475.0487   -208.73709   -5522789.3    144062.47   -5380222.3    3.6056264    3.6056264    62.938845    83.082706  -0.15760171 
   77000   -5377230.2    1478.6967    707.88576   -5521648.9    144418.75   -5372160.9    26.520543    26.520543    62.938645    83.118328  -0.15617464 
   77200   -5380844.4    1459.9353    -808.7229   -5523430.8    142586.39   -5386636.6   -29.461637   -29.461637    62.938445    82.992725  -0.15508846 
   77400   -5380463.2    1473.5017   -873.29668   -5524374.6    143911.38   -5386716.2   -23.877373   -23.877373    62.938245    83.215511  -0.15559723 
   77600   -5376891.8    1480.8222    735.29839   -5521518.1    144626.34   -5371628.1     32.56737     32.56737    62.938045    83.065599  -0.15255132 
   77800   -5379283.7    1475.8623    1092.0529   -5523425.6    144141.92   -5371472.7   -33.391477   -33.391477    62.937845    83.028703  -0.15375327 
   78000   -5381547.8    1457.7043   -122.26112   -5523916.3     142368.5   -5382423.1   -16.703824   -16.703824    62.937645    82.960252  -0.15240215 
   78200   -5378115.3    1487.7611    931.27115   -5523419.3    145304.03   -5371451.8   -4.4106402   -4.4106402    62.937445    83.249769   -0.1522541 
   78400     -5377465    1483.8011    98.946828   -5522382.3    144917.28   -5376756.2    9.3060766    9.3060766    62.937245    83.158603  -0.15177109 
   78600   -5380984.3    1469.9142    46.978429   -5524545.2    143560.99   -5380648.2   -21.769095   -21.769095    62.937045     83.06581  -0.15239257 
   78800   -5379963.5    1466.0018    311.33037   -5523142.4    143178.89   -5377735.5     54.34342     54.34342    62.936845     83.03422  -0.15493697 
   79000   -5377028.5    1479.4308    253.62583   -5521518.9    144490.45   -5375211.1   -77.184416   -77.184416    62.936645    82.969861  -0.15689672 
   79200   -5379544.5     1476.679    97.254455   -5523766.2    144221.69   -5378848.6    34.988381    34.988381    62.936445    83.253706  -0.15909469 
   79400   -5380842.2    1471.5067   -828.98219   -5524558.8    143716.52   -5386777.9   -40.052205   -40.052205    62.936245    82.865115  -0.16264847 
   79600   -5377944.8    1478.3051   -172.85542   -5522325.3     144380.5   -5379183.2    1.1242223    1.1242223    62.936045    82.994699  -0.16453753 
   79800   -5378190.1    1488.3577    429.17431   -5523552.4     145362.3   -5375117.5   -6.6448864   -6.6448864    62.935845    83.011434  -0.16427179 
   80000   -5380860.6    1467.9803    1375.8639   -5524232.7    143372.12   -5371026.6    13.301573    13.301573    62.935645    82.959513  -0.16556536 
   80200   -5378923.7    1480.5714    1361.9227   -5523525.6    144601.85   -5369187.2    49.225562    49.225562    62.935445     83.04693   -0.1651439 
   80400   -5377494.4    1486.2666     30.00007   -5522652.4    145158.07   -5377279.5   -9.0571022   -9.0571022    62.935245    82.858428   -0.1631488 
   80600   -5380210.5    1466.0631   -38.841457   -5523395.4    143184.87   -5380488.5    71.170674    71.170674    62.935045    83.250461  -0.16144577 
   80800   -5380293.8     1471.367    62.224935   -5523996.6    143702.89   -5379848.3   -22.043305   -22.043305    62.934845    83.084628   -0.1569773 
   81000   -5377543.3    1478.6264    970.80535   -5521955.1    144411.89   -5370593.3    44.349987    44.349987    62.934645    82.838992  -0.15365875 
   81200   -5378922.8    1467.9274   -404.66213   -5522289.7    143366.96   -5381823.1    17.618926    17.618926    62.934445    82.933891  -0.15279363 
   81400   -5380273.4    1470.2675    30.408769   -5523868.9     143595.5   -5380055.7     36.44068     36.44068    62.934245    83.171397  -0.15090845 
   81600   -5378573.3    1469.8096    512.15158   -5522124.1    143550.78   -5374906.9   -16.930171   -16.930171    62.934045    83.177759  -0.15090132 
   81800   -5378171.6    1482.4452   -219.25295   -5522956.5    144784.85   -5379741.7    38.493319    38.493319    62.933845    82.990325  -0.14797303 
   82000   -5380251.8    1463.7336   -300.64491   -5523209.2    142957.36   -5382404.8   -12.837522   -12.837522    62.933645    83.050566  -0.14762287 
   82200   -5379393.7    1467.7927    292.40379   -5522747.5    143353.79     -5377300   -11.333285   -11.333285    62.933445    83.055525  -0.14563361 
   82400     -5378025    1485.4427   -470.91698   -5523102.6     145077.6   -5381398.8   -48.126238   -48.126238    62.933245    82.935633  -0.14584912 
   82600   -5379564.7    1472.8422    853.00155   -5523411.6    143846.97   -5373463.7    23.261175    23.261175    62.933045    83.064343  -0.14665708 
   82800   -5380024.7    1464.5021    1142.1539   -5523057.1    143032.42   -5371861.2    38.437662    38.437662    62.932845    83.143171  -0.14546862 
   83000   -5378437.3    1480.3342   -133.78135     -5523016    144578.68   -5379395.7    60.256487    60.256487    62.932645    83.219243  -0.14233793 
   83200   -5378855.9    1475.7571   -195.08193   -5522987.6    144131.65   -5380253.4   -36.170925   -36.170925    62.932445    82.976246   -0.1428951 
   83400   -5380086.6    1468.4229     261.2073     -5523502    143415.35   -5378216.7    75.756938    75.756938    62.932245    83.177034  -0.14221456 
   83600   -5378558.2     1481.688   -755.85193   -5523269.1    144710.89   -5383972.8    -18.69516    -18.69516    62.932045    83.102582  -0.14676901 
   83800   -5378274.8    1472.9944   -505.95817   -5522136.6    143861.82   -5381899.2      14.4561      14.4561    62.931845    82.863001  -0.15256278 
   84000   -5380147.3    1470.1982     698.4194     -5523736    143588.73     -5375151   -34.531067   -34.531067    62.931645    83.031819  -0.15233561 
   84200   -5379409.1    1468.9549    352.09343   -5522876.4     143467.3   -5376889.7   -14.289359   -14.289359    62.931445    82.997433  -0.15249696 
   84400   -5378131.7     1477.951   -61.855098   -5522477.7    144345.92   -5378574.7   -12.447588   -12.447588    62.931245    83.129679  -0.15427112 
   84600   -5379843.4    1464.5217   -902.68613   -5522877.7    143034.33   -5386311.6    24.158653    24.158653    62.931045    83.010813  -0.15609621 
   84800   -5379957.4    1468.4134   -232.83647   -5523371.8    143414.41   -5381624.9   -11.705641   -11.705641    62.930845    82.954043  -0.15591097 
   85000   -5377623.7    1484.8181    234.10629   -5522640.3     145016.6     -5375947    52.654296    52.654296    62.930645    83.037322   -0.1553649 
   85200     -5379025    1476.3133    29.127634     -5523211    144185.97   -5378816.5    -21.84633    -21.84633    62.930445    82.929112  -0.15271543 
   85400   -5380728.5    1461.1623    1443.5382   -5523434.7    142706.23   -5370404.7    106.21541    106.21541    62.930245    83.190336  -0.15028517 
   85600   -5378471.1    1473.1235    68.779137   -5522345.5    143874.43   -5377978.6   -28.501898   -28.501898    62.930045    83.273128  -0.14971832 
   85800   -5378158.9    1484.5231    988.60021   -5523146.6    144987.79   -5371087.9    45.275729    45.275729    62.929845    83.029307  -0.14829614 
   86000   -5380152.2    1475.0555    691.30611   -5524215.3    144063.12     -5375208   -36.250695   -36.250695    62.929645    83.119183    -0.147006 
   86200     -5379603    1469.3541    -54.97464   -5523109.3    143506.29   -5379996.5    25.645177    25.645177    62.929445    82.914404  -0.14718772 
   86400   -5378263.2    1470.7126    183.15675   -5521902.2    143638.98   -5376951.4    19.033177    19.033177    62.929245    83.151538  -0.14484931 
   86600   -5379157.9    1479.8658    132.89231   -5523690.9    144532.93   -5378206.6    28.748143    28.748143    62.929045    83.155183   -0.1423975 
   86800   -5380156.9    1472.9736    226.17955   -5524016.7    143859.79   -5378538.8   -61.651929   -61.651929    62.928845    83.080352  -0.13795285 
   87000   -5378604.3    1478.9912    195.78907   -5523051.8    144447.52   -5377202.1   -19.042063   -19.042063    62.928645    83.008047  -0.13936523 
   87200   -5378252.2    1480.7447    462.54128   -5522870.9    144618.77   -5374941.5   -50.997523   -50.997523    62.928445    83.058856  -0.13661396 
   87400   -5380459.3    1465.6218    188.20591     -5523601    143141.77   -5379112.3   -98.641106   -98.641106    62.928245    82.829718  -0.13546963 
   87600   -5379667.6     1465.717   -428.21702   -5522818.7    143151.07     -5382734    62.870161    62.870161    62.928045    83.226815  -0.13946116 
   87800   -5377589.4     1477.392   -323.99476   -5521880.7    144291.32   -5379910.5   -10.749141   -10.749141    62.927845    82.972332  -0.14011762 
   88000   -5379466.5    1475.4718    379.32226   -5523570.3    144103.78   -5376751.4    2.6562889    2.6562889    62.927645    83.022175  -0.14209001 
   88200   -5380382.3    1465.6214    1320.8361     -5523524    143141.73   -5370938.4   -52.688055   -52.688055    62.927445    82.905111  -0.14345927 
   88400   -5377985.8    1481.8457   -225.49768   -5522712.1     144726.3   -5379600.8    34.344292    34.344292    62.927245    82.796577  -0.14523783 
   88600   -5378417.3    1481.4809    548.29786     -5523108    144690.68   -5374493.8   -40.235086   -40.235086    62.927045    83.185793  -0.14500067 
   88800   -5380536.4    1466.2006   -475.14733   -5523734.7     143198.3   -5383939.5    7.2350998    7.2350998    62.926845    83.001548  -0.14572511 
   89000   -5378902.9    1477.0703    1247.2476   -5523162.8     144259.9   -5369980.2    46.374806    46.374806    62.926645    83.112206  -0.14510298 
   89200   -5378270.9    1475.5634    1023.1637   -5522383.6    144112.73   -5370950.3    20.547405    20.547405    62.926445    83.147808  -0.14513092 
   89400   -5379985.2    1471.6003    17.414002   -5523710.9    143725.67   -5379860.6   -71.742397   -71.742397    62.926245    82.840476  -0.14464822 
   89600   -5380031.1    1463.2355    1112.7687   -5522939.8    142908.71   -5372071.4   -3.3439744   -3.3439744    62.926045    82.917419  -0.14454261 
   89800   -5378232.8    1476.1159    617.59595   -5522399.5     144166.7   -5373810.9   -36.778764   -36.778764    62.925845    82.912181  -0.14522951 
   90000   -5379020.2    1476.9348   -469.45992   -5523266.9    144246.67   -5382383.8    24.843546    24.843546    62.925645    83.053555  -0.14286915 
   90200   -5379738.1    1475.9647    659.08486   -5523890.1    144151.93   -5375022.8   -18.018116   -18.018116    62.925445    83.064234  -0.14161704 
   90400   -5378821.9     1482.379   -537.15817   -5523600.3    144778.38   -5382669.9    33.720141    33.720141    62.925245    83.042879  -0.13882575 
   90600   -5378663.9    1480.6097    451.31975   -5523269.5    144605.58   -5375433.9    50.298042    50.298042    62.925045    83.085446  -0.13601559 
   90800   -5379927.5    1466.5015    -672.6911   -5523155.2    143227.69   -5384745.3    -19.35538    -19.35538    62.924845    82.675191  -0.13480408 
   91000   -5379347.5    1477.4425    164.00902   -5523643.7    144296.26   -5378174.1    67.979151    67.979151    62.924645    83.136307  -0.13203182 
   91200   -5378317.2     1471.983   -150.03834   -5522080.3    143763.05   -5379392.3   -53.661553   -53.661553    62.924445    82.814677  -0.12941048 
   91400   -5379735.8    1478.5522    459.55117   -5524140.4    144404.63     -5376449    23.288186    23.288186    62.924245    83.020806  -0.12629643 
   91600   -5380015.2    1471.5429   -521.47339   -5523735.2    143720.07   -5383749.2    -13.52827    -13.52827    62.924045    82.991451  -0.12588953 
   91800   -5378160.4    1479.5884    422.01499   -5522666.2    144505.84   -5375139.3    22.569971    22.569971    62.923845    83.080903  -0.12637321 
   92000   -5378813.8    1485.4439   -1384.6382   -5523891.6    145077.72   -5388738.7    24.033452    24.033452    62.923645    83.135742  -0.12591718 
   92200   -5380431.3    1458.9515   -758.02701   -5522921.7    142490.31   -5385861.6   -28.090361   -28.090361    62.923445    83.116193  -0.12831569 
   92400   -5378859.8    1470.6289   -220.61986   -5522490.6     143630.8     -5380440   -56.739016   -56.739016    62.923245    82.948285  -0.13078432 
   92600   -5378210.4    1478.1056   -670.66808   -5522571.4    144361.02   -5383017.8   -38.118315   -38.118315    62.923045    82.991549   -0.1319568 
   92800   -5379961.9    1463.7859   -15.072887   -5522924.3    142962.47   -5380069.8   -7.6584475   -7.6584475    62.922845    82.994154  -0.13486809 
   93000   -5379655.4    1472.2096   -654.90172   -5523440.6    143785.18   -5384346.6    39.813686    39.813686    62.922645    83.125243  -0.13691219 
   93200   -5377976.7    1475.1914    253.38602   -5522053.1    144076.39   -5376161.8   -22.079617   -22.079617    62.922445    83.052486  -0.13676388 
   93400   -5379497.3    1477.5813    2088.7526   -5523807.1    144309.82   -5364576.9   -30.148696   -30.148696    62.922245     82.96431  -0.13859748 
   93600   -5380558.8    1474.5406   -397.79311   -5524571.6    144012.83   -5383406.3     87.12248     87.12248    62.922045    83.250182  -0.13716956 
   93800     -5378536    1471.6228   -474.18674   -5522263.9    143727.87   -5381934.3    48.209749    48.209749    62.921845    82.812464  -0.13615513 
   94000   -5378240.2    1483.5771    986.76366   -5523135.6    144895.39   -5371179.2   -42.649908   -42.649908    62.921645    82.768635  -0.13667104 
   94200   -5380286.5    1467.3088    912.22452     -5523593    143306.53   -5373763.9    36.051794    36.051794    62.921445    82.964386  -0.13804807 
   94400   -5379602.4    1463.0541   -169.38599   -5522493.4       142891   -5380815.9    14.564739    14.564739    62.921245    83.073551  -0.13676703 
   94600   -5377819.7    1477.1138      163.701   -5522083.9    144264.15   -5376647.2    6.6411486    6.6411486    62.921045    82.863696  -0.13511387 
   94800   -5379386.2     1470.853    301.32327   -5523038.9    143652.69   -5377229.5    62.481702    62.481702    62.920845     83.04906  -0.13303423 
   95000   -5380453.5    1457.0358    93.610703   -5522756.7    142303.21   -5379783.5   -64.415353   -64.415353    62.920645     82.81647  -0.13158719 
   95200   -5378226.4    1480.0582   -972.14231   -5522778.1    144551.72   -5385194.2    56.760696    56.760696    62.920445     83.05743  -0.12817175 
   95400   -5378278.5    1479.5531     1140.402   -5522780.9    144502.39   -5370119.4    38.202863    38.202863    62.920245    83.034092  -0.12589252 
   95600   -5380429.7    1467.1032   -111.41573   -5523716.2    143286.46   -5381227.7   -33.292327   -33.292327    62.920045    83.017146  -0.12220994 
   95800     -5379185       1470.8   -919.26302   -5522832.5    143647.51   -5385773.8    30.205013    30.205013    62.919845    83.251661  -0.12018496 
   96000   -5378034.5    1474.5177   -146.77296   -5522045.1     144010.6   -5379085.9    10.981682    10.981682    62.919645    83.068007  -0.11701593 
   96200   -5379530.9    1472.6653   -32.239418   -5523360.6    143829.68   -5379761.8   -18.379239   -18.379239    62.919445    83.065139  -0.11600104 
   96400   -5380212.8    1463.0835    883.14856   -5523106.6    142893.87   -5373895.7    12.674247    12.674247    62.919245     82.99168  -0.11649888 
   96600   -5378330.8    1475.7901    880.95215   -5522465.7    144134.87   -5372024.6    31.890764    31.890764    62.919045    83.050729  -0.11737606 
   96800   -5378559.1     1467.552   -1326.1195   -5521889.3    143330.28     -5388073    -12.29915    -12.29915    62.918845    82.951316  -0.11810036 
   97000   -5380241.8    1471.2951    316.78534   -5523937.6    143695.86   -5377975.2    22.135349    22.135349    62.918645    83.019654   -0.1177888 
   97200   -5378953.1    1475.3203    707.55191     -5523042    144088.99   -5373890.6    21.659949    21.659949    62.918445    82.811418  -0.11903974 
   97400   -5378200.1    1473.0661    769.51984   -5522068.9    143868.83     -5372691    21.021127    21.021127    62.918245    82.955652  -0.12177298 
   97600   -5379637.7    1474.3169   -984.25783   -5523628.7    143990.99   -5386689.2   -26.288247   -26.288247    62.918045    82.851337  -0.12329784 
   97800   -5379754.8    1470.9863   -732.22169   -5523420.5    143665.71   -5384997.4    2.1518969    2.1518969    62.917845    83.023382  -0.12401503 
   98000   -5378417.6    1475.3265   -457.00635   -5522507.1    144089.59   -5381690.8   -0.7690376   -0.7690376    62.917645    83.072531  -0.12668692 
   98200   -5379434.7    1475.1353   -678.74314   -5523505.7    144070.92   -5384294.4   -37.965709   -37.965709    62.917445    82.833033  -0.12632168 
   98400   -5379944.6    1462.6292   -407.41327   -5522794.1     142849.5   -5382861.9   -53.295179   -53.295179    62.917245    82.914051  -0.12780132 
   98600   -5378736.8    1473.6749    576.26393   -5522665.1    143928.29   -5374613.5    -17.23204    -17.23204    62.917045    82.829567  -0.12721501 
   98800   -5378771.5    1473.6299   -465.83869   -5522695.4    143923.89     -5382108   -28.265316   -28.265316    62.916845    82.862317   -0.1295369 
   99000   -5380010.2    1468.5938    1081.7527   -5523442.2    143432.04   -5372275.6   -70.569129   -70.569129    62.916645    82.840859  -0.13194016 
   99200   -5378844.6    1480.3916   -319.55628   -5523428.8    144584.28   -5381132.9    65.215408    65.215408    62.916445    83.199022   -0.1288715 
   99400   -5378581.4    1471.9587   -328.77246   -5522342.1    143760.68   -5380936.4    43.020809    43.020809    62.916245    83.179966  -0.12457211 
   99600     -5379742    1476.6617     971.3272     -5523962       144220   -5372797.1     63.64199     63.64199    62.916045    83.065306  -0.12035413 
   99800   -5379781.2    1466.5137   -410.52255   -5523010.1    143228.88   -5382721.9     79.69335     79.69335    62.915845    83.081455  -0.11571762 
  100000   -5378448.1    1473.7322   -648.51248     -5522382    143933.88   -5383095.2   -13.519695   -13.519695    62.915645    82.984865  -0.11455922 
  100200   -5379036.2    1470.6271    685.64802   -5522666.8    143630.62   -5374129.8    12.741258    12.741258    62.915445    83.094728  -0.11008267 
  100400   -5380015.9     1462.408   -893.54085   -5522843.7     142827.9   -5386419.7    -88.77778    -88.77778    62.915245     82.82782  -0.10902344 
  100600   -5378889.5     1479.331   -90.852224   -5523370.2     144480.7     -5379540     78.05644     78.05644    62.915045    83.111039  -0.10720661 
  100800   -5378804.1    1482.3689   -488.67904   -5523581.5     144777.4   -5382303.9    4.5304223    4.5304223    62.914845    83.015278  -0.10950022 
  101000   -5379793.2    1479.9631    361.79597   -5524335.7    144542.44   -5377205.1    10.125919    10.125919    62.914645    83.019201  -0.10770376 
  101200   -5379359.5    1474.5551    596.00659   -5523373.8    144014.25   -5375096.2    31.643264    31.643264    62.914445    83.043911   -0.1065872 
  101400   -5378933.7    1483.6431    118.54473   -5523835.6    144901.84   -5378085.3   -13.133613   -13.133613    62.914245    83.045842  -0.10842385 
  101600   -5378746.2    1471.1735   -785.10816   -5522430.2    143683.99   -5384374.3    22.914133    22.914133    62.914045    82.860092  -0.10631219 
  101800   -5379215.4    1472.0763   -470.92996   -5522987.5    143772.16   -5382589.9   -16.983801   -16.983801    62.913845    82.982556  -0.10712246 
[...]
 2975800     -5378627      1470.99   -284.26694     -5522293    143666.07   -5380664.3    34.197601    34.197601    60.039845     79.61486    1.5867627 
 2976000   -5380545.4    1468.3419   -719.19156   -5523952.8    143407.43   -5385696.4    58.482213    58.482213    60.039645    79.572376    1.5920939 
 2976200     -5378963     1479.423   -110.05503   -5523452.7    144489.68     -5379751    38.615456    38.615456    60.039445    79.846066    1.5992433 
 2976400   -5378508.9    1484.8311    412.13661   -5523526.8    145017.87   -5375559.6    60.858278    60.858278    60.039245    79.852863    1.6084409 
 2976600     -5380253    1464.0075    170.10269   -5523237.1    142984.11   -5379035.1    -25.79371    -25.79371    60.039045      79.4907    1.6139736 
 2976800   -5377832.5    1474.7752    436.03095   -5521868.2    144035.75   -5374709.6    106.34765    106.34765    60.038845    79.908109    1.6234672 
 2977000   -5378254.2     1473.376    163.76775   -5522153.3    143899.09   -5377081.1    80.029793    80.029793    60.038645     79.58992    1.6310862 
 2977200   -5380031.3    1466.0037   -289.86788   -5523210.4    143179.07   -5382107.1    13.408077    13.408077    60.038445    79.796255    1.6360788 
 2977400     -5378279    1476.5356    892.94047   -5522486.6    144207.68   -5371885.2    82.660006    82.660006    60.038245    79.849142    1.6451755 
 2977600   -5378057.6    1473.8121   -36.967393   -5521999.3    143941.69   -5378322.4    14.109705    14.109705    60.038045    79.644984     1.652032 
 2977800   -5379427.3    1478.7413      841.755   -5523850.4     144423.1   -5373405.5    8.4860796    8.4860796    60.037845    79.759053    1.6583107 
 2978000   -5379509.9      1469.16    212.90216   -5522997.2    143487.34   -5377985.5   -37.771087   -37.771087    60.037645    79.496265    1.6647322 
 2978200   -5379202.6    1472.2111   -1016.3032   -5522987.9    143785.33   -5386485.5    94.803852    94.803852    60.037445    79.683939    1.6718118 
 2978400   -5379162.3      1471.66   -177.03758   -5522893.8     143731.5   -5380430.1    56.463007    56.463007    60.037245    79.648169    1.6798575 
 2978600     -5378620    1474.6062   -328.85235   -5522639.2    144019.25     -5380976    29.821869    29.821869    60.037045    79.636599    1.6911017 
 2978800   -5379179.2    1473.4347    932.34537     -5523084    143904.83     -5372508    17.849893    17.849893    60.036845    79.640935    1.7004606 
 2979000   -5380826.4    1476.4855   -1415.7803   -5525029.2    144202.79   -5390966.6    89.035765    89.035765    60.036645    79.869299    1.7084395 
 2979200   -5378372.7    1476.3723    429.94269   -5522564.5    144191.73   -5375294.1    15.589446    15.589446    60.036445    79.731339    1.7170561 
 2979400   -5378939.7    1469.5303   -302.74818   -5522463.2     143523.5   -5381108.9    54.636899    54.636899    60.036245    79.636078    1.7240656 
 2979600   -5380288.1    1468.3324    965.74448   -5523694.7    143406.51   -5373378.5    33.485381    33.485381    60.036045    79.724853    1.7315561 
 2979800   -5379359.3    1469.0916    211.76077   -5522839.9    143480.66   -5377843.1    80.568981    80.568981    60.035845    79.825603    1.7384744 
 2980000   -5378730.6    1471.9839     1043.066   -5522493.8    143763.13   -5371266.7    46.071524    46.071524    60.035645    79.693009    1.7437936 
 2980200     -5379293    1476.8124   -18.932458   -5523527.7    144234.71   -5379428.6  0.055833853  0.055833853    60.035445    79.805068    1.7523376 
 2980400   -5380730.5    1468.2541   -912.89009   -5524129.4    143398.86   -5387269.9    57.947853    57.947853    60.035245    79.880076    1.7591077 
 2980600   -5378408.1    1478.3321   -561.39523   -5522791.2    144383.14   -5382430.7    77.014131    77.014131    60.035045    79.704992    1.7646715 
 2980800   -5379390.8    1474.4273    137.34168   -5523392.5    144001.77   -5378407.3    62.489453    62.489453    60.034845    79.508045    1.7736787 
 2981000   -5381189.4    1467.7364   -626.73624   -5524537.7     143348.3   -5385675.6    42.493929    42.493929    60.034645    79.592672    1.7813202 
 2981200   -5380207.6    1459.9555   -371.53122     -5522796    142588.37   -5382868.7    60.278112    60.278112    60.034445    79.523707      1.78945 
 2981400     -5378705     1478.626    424.83133   -5523116.8    144411.84   -5375663.6    45.684336    45.684336    60.034245     79.72536    1.7966148 
 2981600   -5378649.2    1483.1294    1001.7659   -5523500.9    144851.67   -5371484.2    107.48707    107.48707    60.034045    79.694062    1.8057739 
 2981800   -5380629.1    1470.1388   -235.74463     -5524212    143582.93   -5382317.1   -17.516587   -17.516587    60.033845    79.474247    1.8120891 
 2982000   -5378849.9    1469.9008    881.72713   -5522409.6    143559.69   -5372537.4    45.210074    45.210074    60.033645    79.544844    1.8203043 
 2982200   -5379115.2    1470.4542    421.57743   -5522728.9    143613.73   -5376097.7    39.213121    39.213121    60.033445    79.620945     1.827526 
 2982400   -5380392.4    1471.3078    127.76756   -5524089.5     143697.1   -5379478.3    30.432519    30.432519    60.033245    79.802877    1.8369381 
 2982600   -5379487.7    1475.9358   -1315.2676   -5523636.8    144149.11   -5388911.4    53.782028    53.782028    60.033045    79.752766    1.8442868 
 2982800   -5378251.8     1484.043    670.93668   -5523192.7     144940.9   -5373448.9   -25.996583   -25.996583    60.032845    79.701682    1.8531613 
 2983000   -5380484.1    1464.3993   -211.79977   -5523506.5    143022.37     -5382001    100.99619    100.99619    60.032645    79.587247     1.859363 
 2983200   -5379634.6    1470.4708    284.88358     -5523250    143615.36   -5377595.1    51.108409    51.108409    60.032445    80.058773    1.8694617 
 2983400   -5378919.7     1477.099   -472.15435   -5523182.4    144262.71   -5382301.4    12.372273    12.372273    60.032245    79.794182    1.8813986 
 2983600   -5379104.9    1474.1706   -276.61656   -5523081.6     143976.7   -5381087.3    9.3759739    9.3759739    60.032045    79.607986    1.8874848 
 2983800   -5380734.4    1448.9069   -330.14205   -5522243.7    141509.29   -5383100.6    21.317155    21.317155    60.031845    79.896256     1.893578 
 2984000   -5378517.8    1479.3341    72.910321   -5522998.8       144481   -5377995.7    60.191761    60.191761    60.031645    79.765851    1.9021215 
 2984200     -5378891    1473.5454    461.17097   -5522806.6    143915.64   -5375589.7    11.474944    11.474944    60.031445    79.627557    1.9086274 
 2984400   -5381186.5     1468.921    31.592905   -5524650.5       143464   -5380960.4    98.236799    98.236799    60.031245    79.812527    1.9164035 
 2984600   -5380034.5    1475.9722    1052.8082   -5524187.2    144152.66   -5372507.5     32.10672     32.10672    60.031045    79.566023    1.9224495 
 2984800   -5378676.2     1466.492    639.35457   -5521902.9    143226.76   -5374097.3    90.233473    90.233473    60.030845    79.938534    1.9311469 
 2985000   -5378249.1    1477.8183    707.75212   -5522582.1    144332.96   -5373182.6    80.632184    80.632184    60.030645    79.541991    1.9400996 
 2985200   -5380297.2    1461.3866    1648.6599   -5523025.3    142728.14   -5368508.8    -11.17405    -11.17405    60.030445    79.438796    1.9461391 
 2985400     -5378647    1481.9236    219.33209   -5523380.9    144733.91   -5377076.5    77.780039    77.780039    60.030245     79.69397    1.9519047 
 2985600   -5378196.8    1471.7587   -1073.0336   -5521937.9    143741.14   -5385893.9   -1.0346029   -1.0346029    60.030045    79.739355    1.9603019 
 2985800   -5379701.5    1474.9581   -806.48014   -5523755.1    144053.61   -5385475.9    24.916246    24.916246    60.029845    79.742211    1.9660737 
 2986000   -5379433.2    1472.8574    309.97027   -5523281.6    143848.45   -5377214.4    80.059294    80.059294    60.029645    79.713009    1.9747401 
 2986200   -5378168.9     1481.988    1564.1906   -5522909.1     144740.2   -5366986.9     45.05208     45.05208    60.029445    79.901663    1.9802592 
 2986400   -5377406.6    1478.3907   -1096.1868   -5521795.5    144388.86   -5385267.6   -5.2056899   -5.2056899    60.029245    79.636762    1.9869971 
 2986600   -5379112.3    1471.1954   -284.50425   -5522798.4    143686.13   -5381150.2   -8.9696731   -8.9696731    60.029045     79.60608    1.9939598 
 2986800   -5379713.2    1462.5544    90.274239   -5522555.4    142842.19     -5379067     21.84293     21.84293    60.028845     79.58335    1.9999673 
 2987000   -5378320.9    1484.1783    116.57761     -5523275    144954.12   -5377486.1    35.711439    35.711439    60.028645    79.609111    2.0105043 
 2987200   -5378559.3    1467.0784   -1612.0546   -5521843.3    143284.03   -5390123.5    99.479572    99.479572    60.028445    79.552022    2.0197485 
 2987400   -5380243.5    1464.1139    440.48204     -5523238     142994.5   -5377090.6    33.357271    33.357271    60.028245    79.653383    2.0295155 
 2987600   -5379034.4    1473.6675   -52.980378     -5522962    143927.56   -5379413.9    136.40395    136.40395    60.028045     79.72841     2.040224 
 2987800   -5378886.1    1472.2414     727.4686   -5522674.4    143788.28   -5373681.3    54.132939    54.132939    60.027845    79.514082    2.0496734 
 2988000   -5379450.1    1472.8033   -535.28765   -5523293.3    143843.16   -5383283.6    63.338452    63.338452    60.027645     79.73643    2.0585229 
 2988200   -5380559.5    1470.5128    610.42572     -5524179    143619.46   -5376194.6    24.663884    24.663884    60.027445     79.70071    2.0649376 
 2988400   -5379605.6    1476.8113   -380.19046   -5523840.2    144234.61   -5382327.3    60.315177    60.315177    60.027245    79.722832    2.0723916 
 2988600   -5378435.3    1477.3044    300.16461   -5522718.1    144282.77   -5376285.3   -17.693582   -17.693582    60.027045    79.668803    2.0805661 
 2988800   -5380586.2    1470.5521    796.99661   -5524209.5     143623.3   -5374887.1    44.577953    44.577953    60.026845    79.672763    2.0876059 
 2989000   -5379067.8    1477.8715   -403.76288   -5523405.9    144338.15   -5381959.6    21.101073    21.101073    60.026645    79.606709    2.0957647 
 2989200   -5378394.2    1472.5609   -754.34809   -5522213.7    143819.48   -5383798.5    9.9879995    9.9879995    60.026445    79.466539    2.1038876 
 2989400   -5380240.3    1467.0252     -826.333   -5523519.1    143278.84   -5386159.8    82.756952    82.756952    60.026245    79.733055    2.1117767 
 2989600   -5378294.9    1480.7826    1086.8781   -5522917.4    144622.47   -5370517.6    47.627348    47.627348    60.026045    79.825009     2.120399 
 2989800   -5378444.4    1476.0861    74.950051   -5522608.2    144163.78     -5377908    20.927318    20.927318    60.025845    79.575986    2.1281023 
 2990000   -5379612.9    1464.0168    375.87989   -5522597.9    142985.02   -5376922.7    47.020942    47.020942    60.025645    79.387834    2.1342343 
 2990200   -5379466.7    1462.9117    1.4390477   -5522343.8    142877.09   -5379456.4    30.671806    30.671806    60.025445    79.625171    2.1421298 
 2990400   -5379223.6    1465.3099    289.78406   -5522334.9    143111.31   -5377148.5   -3.7996708   -3.7996708    60.025245    79.721932    2.1497463 
 2990600     -5379150    1465.4877   -765.54915   -5522278.7    143128.68   -5384635.3    121.71056    121.71056    60.025045    79.879232    2.1573927 
 2990800   -5379573.5    1469.8274   -689.76382   -5523126.1    143552.52     -5384516   -12.134754   -12.134754    60.024845    79.438851    2.1622812 
 2991000   -5379468.6    1469.8344    372.60955   -5523021.7     143553.2   -5376800.8    32.333447    32.333447    60.024645    79.541088    2.1707009 
 2991200   -5377679.1    1485.6949    229.54866   -5522781.4    145102.24   -5376035.4    57.669769    57.669769    60.024445    79.691443    2.1761425 
 2991400   -5380169.9    1467.2816    451.95772   -5523473.8    143303.88   -5376936.1   -18.674087   -18.674087    60.024245    79.568728    2.1847717 
 2991600   -5379326.6    1474.7286    824.66772   -5523357.8     144031.2   -5373424.7     59.46158     59.46158    60.024045    79.742426    2.1909154 
 2991800   -5378166.5    1477.6896    893.02966   -5522486.9    144320.39     -5371774    4.6523972    4.6523972    60.023845    79.491648    2.2022346 
 2992000   -5380006.7    1481.4656    1685.7038   -5524695.8    144689.18   -5367963.4    97.837604    97.837604    60.023645    79.771825    2.2105028 
 2992200   -5382190.4    1459.1467   -35.572984   -5524699.7    142509.37   -5382444.7  -0.39759554  -0.39759554    60.023445    79.538444    2.2163375 
 2992400   -5379329.8    1475.1861    222.00341   -5523405.7    144075.89   -5377740.6    52.196858    52.196858    60.023245     79.79699    2.2254578 
 2992600   -5378085.3    1487.2108    150.56138   -5523335.6    145250.29   -5377007.6    76.424214    76.424214    60.023045    79.296522    2.2335274 
 2992800   -5380355.1    1471.1713    818.83205   -5524038.9    143683.77   -5374497.5    56.051817    56.051817    60.022845    79.690989    2.2426766 
 2993000   -5379837.1    1472.0247   -551.49589   -5523604.2    143767.12   -5383787.6    59.501572    59.501572    60.022645    79.816995    2.2486311 
 2993200     -5379059     1470.918    556.29479   -5522718.1    143659.03     -5375077    14.247516    14.247516    60.022445     79.65609    2.2559705 
 2993400   -5379270.5    1476.3607    620.21856   -5523461.1     144190.6   -5374831.6    68.515157    68.515157    60.022245    79.806454    2.2648734 
 2993600   -5381133.9     1472.183   -302.76697   -5524916.5    143782.58   -5383300.5    63.363826    63.363826    60.022045    79.630145    2.2747675 
 2993800   -5378889.6    1471.4861    281.03274   -5522604.1    143714.51   -5376878.3      78.8175      78.8175    60.021845    79.693689    2.2858889 
 2994000   -5378802.1    1473.7863     390.7722   -5522741.2    143939.17   -5376004.3     44.85829     44.85829    60.021645    79.627566    2.2948726 
 2994200   -5380880.9    1468.8994    180.83535   -5524342.8    143461.88   -5379587.2    54.134174    54.134174    60.021445    79.862705    2.3023727 
 2994400   -5379757.2    1474.6382    217.71605   -5523779.6    144022.37   -5378199.8    7.2051599    7.2051599    60.021245    79.653612    2.3106611 
 2994600   -5378858.9    1472.7511   -262.56036     -5522697    143838.06   -5380739.8    83.135198    83.135198    60.021045    79.627836    2.3185181 
 2994800   -5380060.3    1471.9777    415.34465   -5523822.8    143762.53   -5377088.4    -15.85832    -15.85832    60.020845    79.456775    2.3245567 
 2995000   -5381297.1    1463.7519    201.17455   -5524256.2    142959.15   -5379857.5    65.918378    65.918378    60.020645    79.632534    2.3319979 
 2995200   -5378736.9     1467.187    514.72489   -5522031.5    143294.64   -5375051.1    85.053323    85.053323    60.020445    79.861178     2.340662 
 2995400   -5379244.9    1469.6943    1371.4315   -5522784.4    143539.52   -5369431.1    82.254896    82.254896    60.020245    79.864514    2.3497307 
 2995600   -5381242.6    1463.5008   -449.66541   -5524177.3    142934.62   -5384461.2    51.722402    51.722402    60.020045    79.758818    2.3595395 
 2995800   -5379117.7    1482.4763    215.25705   -5523905.6    144787.89   -5377578.1    61.338998    61.338998    60.019845    79.665587    2.3689355 
 2996000   -5379486.4    1463.5985      757.491   -5522430.6    142944.16   -5374065.9    58.078252    58.078252    60.019645    79.775241    2.3771443 
 2996200   -5379299.3    1470.1933    865.70052   -5522887.5    143588.25   -5373104.1   -43.317687   -43.317687    60.019445    79.544743    2.3838473 
 2996400   -5378865.4    1484.3951    1249.2507   -5523840.7    144975.29   -5369928.9    38.766809    38.766809    60.019245    79.708884    2.3897009 
 2996600     -5378851     1480.404   -16.933051   -5523436.5     144585.5   -5378972.2    64.642548    64.642548    60.019045    79.677209    2.4000424 
 2996800     -5380527    1464.5695    199.93232     -5523566       143039   -5379096.1    2.6656341    2.6656341    60.018845    79.709166    2.4076477 
 2997000   -5378627.5    1471.1086    -37.40709   -5522305.2    143677.65   -5378895.3    57.347351    57.347351    60.018645    79.722896    2.4153971 
 2997200   -5378591.9    1465.4276   -328.88644   -5521714.8    143122.81   -5380948.4    53.603688    53.603688    60.018445    79.656993    2.4237644 
 2997400   -5380181.4    1468.8624   -939.55349   -5523639.7    143458.27   -5386913.6    40.150329    40.150329    60.018245    79.620157    2.4310114 
 2997600   -5379657.9    1471.7831    1168.8302   -5523401.4    143743.52   -5371297.2    27.506772    27.506772    60.018045    79.712859    2.4412451 
 2997800   -5378818.7    1476.2837   -270.94013   -5523001.7    144183.08   -5380758.6    58.275608    58.275608    60.017845    79.790943    2.4479306 
 2998000   -5379179.6    1471.1792   -484.65097   -5522864.1    143684.54   -5382650.2   -3.5449681   -3.5449681    60.017645    79.711955    2.4543583 
 2998200   -5380778.9    1478.2793    104.75776   -5525156.9    144377.99   -5380029.7    98.303441    98.303441    60.017445     79.81916      2.46173 
 2998400   -5378331.8    1476.9561   -864.57031   -5522580.6    144248.75     -5384530  -0.77198321  -0.77198321    60.017245    79.602172    2.4726414 
 2998600   -5379070.8    1471.5083   -83.841085   -5522787.5    143716.69   -5379671.1    59.592732    59.592732    60.017045    79.542931    2.4796823 
 2998800   -5380999.8    1466.9272   -888.96079     -5524269    143269.27   -5387365.6     5.112031     5.112031    60.016845    79.596712     2.486027 
 2999000   -5378540.9    1478.0756    800.74489     -5522899    144358.09   -5372809.9    45.246584    45.246584    60.016645    79.519321    2.4939392 
 2999200   -5378607.6    1480.8824   -364.03766   -5523239.9    144632.22   -5381214.7    50.449876    50.449876    60.016445    79.595916    2.5021391 
 2999400   -5380353.8    1473.0175    870.37963   -5524217.9    143864.09   -5374127.4    65.328905    65.328905    60.016245    79.687036    2.5099985 
 2999600   -5379261.8    1471.9685    -609.0052   -5523023.4    143761.63   -5383625.3    43.185919    43.185919    60.016045    79.745727    2.5203658 
 2999800   -5379225.9    1469.9717   -1040.9055   -5522792.5    143566.61     -5386685   -27.532045   -27.532045    60.015845    79.429744    2.5263733 
 3000000   -5379271.1    1470.8712    1128.5761   -5522925.6    143654.46   -5371195.7    104.63166    104.63166    60.015645    79.788549    2.5352511 
Loop time of 70050.3 on 72 procs for 3000000 steps with 32766 atoms

Performance: 3.700 ns/day, 6.486 hours/ns, 42.826 timesteps/s
97.6% CPU use with 72 MPI tasks x 1 OpenMP threads

MPI task timing breakdown:
Section |  min time  |  avg time  |  max time  |%varavg| %total
---------------------------------------------------------------
Pair    | 8722.6     | 10639      | 12874      |1189.9 | 15.19
Bond    | 5.9855     | 7.3601     | 12.248     |  45.7 |  0.01
Kspace  | 39260      | 41470      | 43348      | 593.5 | 59.20
Neigh   | 610.96     | 612.4      | 613.73     |   2.9 |  0.87
Comm    | 1265.4     | 2151       | 4101.5     |2391.0 |  3.07
Output  | 4.5559     | 4.6638     | 8.4376     |  20.7 |  0.01
Modify  | 6816.8     | 12963      | 15608      |3021.9 | 18.51
Other   |            | 2203       |            |       |  3.14

Nlocal:    455.083 ave 528 max 400 min
Histogram: 16 0 2 30 0 0 8 0 0 16
Nghost:    6876.96 ave 7078 max 6516 min
Histogram: 22 2 0 0 0 0 0 0 0 48
Neighs:    172364 ave 202434 max 142740 min
Histogram: 5 6 11 8 12 6 8 0 2 14

Total # of neighbors = 12410199
Ave neighs/atom = 378.752
Ave special neighs/atom = 0
Neighbor list builds = 107126
Dangerous builds = 2
Total wall time: 19:27:30
