LAMMPS data file via write_data, version 22 Dec 2022, timestep = 400

1946 atoms
3 atom types

0 20.1182 xlo xhi
0 20.3224 ylo yhi
0 93.7738 zlo zhi

Masses

1 52
2 55.84
3 16

Atoms # charge

96 2 0.03143209456454082 1.43704 6.09672 0 0 0 0
101 1 0.04336388362060863 0 6.09672 2.03208 0 0 0
106 2 0.02007412860385888 1.43704 6.09672 4.06416 0 0 0
136 2 0.03430661053019605 1.43704 2.03224 0 0 0 0
141 2 0.03562078276660952 0 4.06448 0 0 0 0
146 2 0.02010461439594605 1.43704 4.06448 2.03208 0 0 0
151 2 0.02778709767114228 0 4.06448 4.06416 0 0 0
156 2 0.01903642024905919 1.43704 4.06448 6.09717 0 0 0
161 1 0.04165048185224132 0 6.09672 6.09717 0 0 0
181 2 0.0295276846417789 0 0 0 0 0 0
186 2 0.02037737225795115 1.43704 0 2.03208 0 0 0
191 2 0.02549412041085834 0 2.03224 2.03208 0 0 0
196 2 0.02582953102161815 1.43704 2.03224 4.06416 0 0 0
201 2 0.02570858662410479 0 2.03224 6.09717 0 0 0
241 2 0.02608870921222141 0 0 4.06416 0 0 0
246 2 0.01891246793647289 1.43704 0 6.09717 0 0 0
346 2 0.03205946587475954 4.31113 6.09672 0 0 0 0
351 1 0.03968104068042626 2.87409 6.09672 2.03208 0 0 0
356 2 0.02360140803305347 4.31113 6.09672 4.06416 0 0 0
386 2 0.02911389211396521 4.31113 2.03224 0 0 0 0
391 2 0.03439750676241617 2.87409 4.06448 0 0 0 0
396 1 0.0406717889074877 4.31113 4.06448 2.03208 0 0 0
401 2 0.02721321142378273 2.87409 4.06448 4.06416 0 0 0
406 2 0.02585168564453376 4.31113 4.06448 6.09717 0 0 0
411 2 0.02611064605087646 2.87409 6.09672 6.09717 0 0 0
431 1 0.05498430607024807 2.87409 0 0 0 0 0
436 2 0.01911121441231133 4.31113 0 2.03208 0 0 0
441 2 0.021552512051029 2.87409 2.03224 2.03208 0 0 0
446 2 0.01952189456993592 4.31113 2.03224 4.06416 0 0 0
451 1 0.04390773297160673 2.87409 2.03224 6.09717 0 0 0
491 1 0.04523541652450262 2.87409 0 4.06416 0 0 0
496 1 0.03974125723212951 4.31113 0 6.09717 0 0 0
601 2 0.02167642866317142 5.74797 6.09672 2.03208 0 0 0
641 2 0.02842310686555202 5.74797 4.06448 0 0 0 0
651 2 0.02624954073880995 5.74797 4.06448 4.06416 0 0 0
661 2 0.02552261483333051 5.74797 6.09672 6.09717 0 0 0
681 2 0.0313925785360166 5.74797 0 0 0 0 0
691 1 0.04091117911036769 5.74797 2.03224 2.03208 0 0 0
701 2 0.02413485322101157 5.74797 2.03224 6.09717 0 0 0
741 2 0.02565692947537931 5.74797 0 4.06416 0 0 0
596 1 0.05421998709822769 7.18501 6.09672 0 0 0 0
606 2 0.02730534674686032 7.18501 6.09672 4.06416 0 0 0
636 1 0.05280817992364337 7.18501 2.03224 0 0 0 0
646 2 0.01833296677795031 7.18501 4.06448 2.03208 0 0 0
656 2 0.02271762326737795 7.18501 4.06448 6.09717 0 0 0
686 2 0.02344594707324809 7.18501 0 2.03208 0 0 0
696 2 0.02645348953264667 7.18501 2.03224 4.06416 0 0 0
746 2 0.02565378589366869 7.18501 0 6.09717 0 0 0
851 2 0.0216683841019699 8.62206 6.09672 2.03208 0 0 0
891 2 0.02921699355146423 8.62206 4.06448 0 0 0 0
901 1 0.04418721182728939 8.62206 4.06448 4.06416 0 0 0
911 2 0.02404978976237596 8.62206 6.09672 6.09717 0 0 0
931 2 0.03064347648447099 8.62206 0 0 0 0 0
941 2 0.02204012770679072 8.62206 2.03224 2.03208 0 0 0
951 2 0.02250304359561697 8.62206 2.03224 6.09717 0 0 0
991 2 0.02648589531844042 8.62206 0 4.06416 0 0 0
846 1 0.05096909319942713 10.0591 6.09672 0 0 0 0
856 2 0.02399214711783538 10.0591 6.09672 4.06416 0 0 0
886 2 0.03572331315333716 10.0591 2.03224 0 0 0 0
896 2 0.02114180510724207 10.0591 4.06448 2.03208 0 0 0
906 1 0.04324034724635745 10.0591 4.06448 6.09717 0 0 0
936 2 0.02405457261167201 10.0591 0 2.03208 0 0 0
946 2 0.02388360228024413 10.0591 2.03224 4.06416 0 0 0
996 2 0.02442093787223819 10.0591 0 6.09717 0 0 0
1096 2 0.03094098280746375 12.9332 6.09672 0 0 0 0
1101 2 0.02354797314484146 11.4961 6.09672 2.03208 0 0 0
1106 2 0.02753432657857501 12.9332 6.09672 4.06416 0 0 0
1136 2 0.03624331653607223 12.9332 2.03224 0 0 0 0
1141 2 0.03454793163757131 11.4961 4.06448 0 0 0 0
1146 2 0.02051299078813738 12.9332 4.06448 2.03208 0 0 0
1151 1 0.04304423812988482 11.4961 4.06448 4.06416 0 0 0
1156 2 0.01644077820710588 12.9332 4.06448 6.09717 0 0 0
1161 2 0.0250849884774997 11.4961 6.09672 6.09717 0 0 0
1181 2 0.03301601258030943 11.4961 0 0 0 0 0
1186 2 0.02554242539833367 12.9332 0 2.03208 0 0 0
1191 2 0.02587064042443658 11.4961 2.03224 2.03208 0 0 0
1196 2 0.02388970269770278 12.9332 2.03224 4.06416 0 0 0
1201 2 0.02156375775860345 11.4961 2.03224 6.09717 0 0 0
1241 2 0.02757172506825195 11.4961 0 4.06416 0 0 0
1246 2 0.02608628283987281 12.9332 0 6.09717 0 0 0
1346 2 0.0303426383150136 15.8071 6.09672 0 0 0 0
1351 2 0.02133363283394622 14.3702 6.09672 2.03208 0 0 0
1356 2 0.02139869486360983 15.8071 6.09672 4.06416 0 0 0
1386 2 0.03450621809396152 15.8071 2.03224 0 0 0 0
1391 2 0.03509025397105967 14.3702 4.06448 0 0 0 0
1396 1 0.04095655716221235 15.8071 4.06448 2.03208 0 0 0
1401 1 0.04269230471083274 14.3702 4.06448 4.06416 0 0 0
1406 1 0.038141935502101 15.8071 4.06448 6.09717 0 0 0
1411 2 0.0206452051731837 14.3702 6.09672 6.09717 0 0 0
1431 2 0.03449401674918062 14.3702 0 0 0 0 0
1436 1 0.0424173122688843 15.8071 0 2.03208 0 0 0
1441 2 0.02043833116012415 14.3702 2.03224 2.03208 0 0 0
1446 2 0.02038697432611304 15.8071 2.03224 4.06416 0 0 0
1451 1 0.04188349861162505 14.3702 2.03224 6.09717 0 0 0
1491 2 0.02557200194039056 14.3702 0 4.06416 0 0 0
1496 2 0.02129237964170173 15.8071 0 6.09717 0 0 0
1596 2 0.03185585509443485 18.6812 6.09672 0 0 0 0
1601 1 0.042372837906747 17.2441 6.09672 2.03208 0 0 0
1606 2 0.01940973498885436 18.6812 6.09672 4.06416 0 0 0
1636 2 0.03659632664351403 18.6812 2.03224 0 0 0 0
1641 2 0.03306143925450925 17.2441 4.06448 0 0 0 0
1646 2 0.02076116268423026 18.6812 4.06448 2.03208 0 0 0
1651 2 0.02120521287100689 17.2441 4.06448 4.06416 0 0 0
1656 1 0.03986096668313887 18.6812 4.06448 6.09717 0 0 0
1661 1 0.04192926919642932 17.2441 6.09672 6.09717 0 0 0
1681 2 0.02910278736183292 17.2441 0 0 0 0 0
1686 1 0.04008271899538052 18.6812 0 2.03208 0 0 0
1691 2 0.0187133550584388 17.2441 2.03224 2.03208 0 0 0
1696 2 0.02635754713673234 18.6812 2.03224 4.06416 0 0 0
1701 2 0.02431955712466734 17.2441 2.03224 6.09717 0 0 0
1741 1 0.0423529806399731 17.2441 0 4.06416 0 0 0
1746 2 0.02493474419991575 18.6812 0 6.09717 0 0 0
51 2 0.03300631426407967 0 8.12896 0 0 0 0
56 2 0.01928324590794604 1.43704 8.12896 2.03208 0 0 0
111 2 0.02791996115125259 0 8.12896 4.06416 0 0 0
116 2 0.02106311364560725 1.43704 8.12896 6.09717 0 0 0
301 2 0.03706872691704707 2.87409 8.12896 0 0 0 0
306 2 0.01893801131825095 4.31113 8.12896 2.03208 0 0 0
361 1 0.04823765769863906 2.87409 8.12896 4.06416 0 0 0
366 2 0.02515953615783238 4.31113 8.12896 6.09717 0 0 0
551 2 0.03264765877601337 5.74797 8.12896 0 0 0 0
611 2 0.02489777295138702 5.74797 8.12896 4.06416 0 0 0
6 2 0.03424073919873621 1.43704 10.1612 0 0 0 0
11 2 0.02959412044525409 0 12.1934 0 0 0 0
16 1 0.0404833944991196 1.43704 12.1934 2.03208 0 0 0
61 2 0.02241523845347003 0 10.1612 2.03208 0 0 0
66 2 0.02377618665179911 1.43704 10.1612 4.06416 0 0 0
71 2 0.02554115967768564 0 12.1934 4.06416 0 0 0
76 2 0.02297818678842348 1.43704 12.1934 6.09717 0 0 0
121 2 0.02719321688429929 0 10.1612 6.09717 0 0 0
256 2 0.03382667381839521 4.31113 10.1612 0 0 0 0
261 2 0.03501435040742976 2.87409 12.1934 0 0 0 0
266 2 0.01842569716349082 4.31113 12.1934 2.03208 0 0 0
311 2 0.0210203848184321 2.87409 10.1612 2.03208 0 0 0
316 2 0.02258581960655708 4.31113 10.1612 4.06416 0 0 0
321 1 0.04316981121607222 2.87409 12.1934 4.06416 0 0 0
326 2 0.02276018188901589 4.31113 12.1934 6.09717 0 0 0
371 2 0.02445575646907508 2.87409 10.1612 6.09717 0 0 0
511 2 0.03489710724891353 5.74797 12.1934 0 0 0 0
561 1 0.04551729059265629 5.74797 10.1612 2.03208 0 0 0
571 2 0.02626995862296643 5.74797 12.1934 4.06416 0 0 0
621 2 0.02596054574943334 5.74797 10.1612 6.09717 0 0 0
556 2 0.02446740693918271 7.18501 8.12896 2.03208 0 0 0
616 1 0.04383145493702342 7.18501 8.12896 6.09717 0 0 0
801 2 0.0281384099515868 8.62206 8.12896 0 0 0 0
861 2 0.02552383613526505 8.62206 8.12896 4.06416 0 0 0
506 2 0.03364717416298707 7.18501 10.1612 0 0 0 0
516 2 0.02356058975740777 7.18501 12.1934 2.03208 0 0 0
566 2 0.02282371575022012 7.18501 10.1612 4.06416 0 0 0
576 2 0.02420747492260283 7.18501 12.1934 6.09717 0 0 0
761 2 0.03100932423541864 8.62206 12.1934 0 0 0 0
811 2 0.01932496451797645 8.62206 10.1612 2.03208 0 0 0
821 2 0.02351573107721147 8.62206 12.1934 4.06416 0 0 0
871 1 0.04154707466202473 8.62206 10.1612 6.09717 0 0 0
806 2 0.02182883317338789 10.0591 8.12896 2.03208 0 0 0
866 2 0.02216903578240992 10.0591 8.12896 6.09717 0 0 0
1051 1 0.04561787922089614 11.4961 8.12896 0 0 0 0
1056 2 0.0202914304420975 12.9332 8.12896 2.03208 0 0 0
1111 2 0.02505761247524101 11.4961 8.12896 4.06416 0 0 0
1116 2 0.02503115238919327 12.9332 8.12896 6.09717 0 0 0
756 1 0.04766543727129984 10.0591 10.1612 0 0 0 0
766 1 0.03681089829377771 10.0591 12.1934 2.03208 0 0 0
816 1 0.03844283805484432 10.0591 10.1612 4.06416 0 0 0
826 2 0.01878169636497468 10.0591 12.1934 6.09717 0 0 0
1006 1 0.04183902919515308 12.9332 10.1612 0 0 0 0
1011 1 0.04434411148001188 11.4961 12.1934 0 0 0 0
1016 1 0.03501935403270585 12.9332 12.1934 2.03208 0 0 0
1061 1 0.03019064412551644 11.4961 10.1612 2.03208 0 0 0
1066 1 0.0394286045261697 12.9332 10.1612 4.06416 0 0 0
1071 1 0.03544752326085808 11.4961 12.1934 4.06416 0 0 0
1076 2 0.02414525163876795 12.9332 12.1934 6.09717 0 0 0
1121 1 0.04085362749385375 11.4961 10.1612 6.09717 0 0 0
1301 1 0.05291329804469171 14.3702 8.12896 0 0 0 0
1306 2 0.02208200091554235 15.8071 8.12896 2.03208 0 0 0
1361 2 0.02717023196917319 14.3702 8.12896 4.06416 0 0 0
1366 2 0.02492716842466175 15.8071 8.12896 6.09717 0 0 0
1551 2 0.03194598757511901 17.2441 8.12896 0 0 0 0
1556 2 0.02057074483788903 18.6812 8.12896 2.03208 0 0 0
1611 2 0.02546921948249055 17.2441 8.12896 4.06416 0 0 0
1616 2 0.02510499923368089 18.6812 8.12896 6.09717 0 0 0
1256 2 0.03045867406431822 15.8071 10.1612 0 0 0 0
1261 1 0.04867695683757381 14.3702 12.1934 0 0 0 0
1266 2 0.02369306765192701 15.8071 12.1934 2.03208 0 0 0
1311 2 0.01610847200802652 14.3702 10.1612 2.03208 0 0 0
1316 1 0.04706825988563783 15.8071 10.1612 4.06416 0 0 0
1321 2 0.02027575454868565 14.3702 12.1934 4.06416 0 0 0
1326 2 0.0243386485163776 15.8071 12.1934 6.09717 0 0 0
1371 2 0.02317768772443513 14.3702 10.1612 6.09717 0 0 0
1506 1 0.05482337063685445 18.6812 10.1612 0 0 0 0
1511 2 0.03086433976937501 17.2441 12.1934 0 0 0 0
1516 2 0.02181080358247005 18.6812 12.1934 2.03208 0 0 0
1561 2 0.02224826994031792 17.2441 10.1612 2.03208 0 0 0
1566 2 0.02856684482059581 18.6812 10.1612 4.06416 0 0 0
1571 2 0.02731894751094562 17.2441 12.1934 4.06416 0 0 0
1576 2 0.02722398664732092 18.6812 12.1934 6.09717 0 0 0
1621 2 0.02403281429563 17.2441 10.1612 6.09717 0 0 0
21 1 0.04164287394145775 0 14.2257 2.03208 0 0 0
26 2 0.01640621915145946 1.43704 14.2257 4.06416 0 0 0
31 1 0.04779871778769784 0 16.2579 4.06416 0 0 0
36 2 0.02240802145114632 1.43704 16.2579 6.09717 0 0 0
41 2 0.02541925190783836 0 18.2902 6.09717 0 0 0
81 2 0.02804525993740516 0 14.2257 6.09717 0 0 0
176 2 0.03230840385431089 1.43704 18.2902 0 0 0 0
216 2 0.03286876386488451 1.43704 14.2257 0 0 0 0
221 2 0.03301839546103617 0 16.2579 0 0 0 0
226 2 0.02220972229043631 1.43704 16.2579 2.03208 0 0 0
231 2 0.02169707901507351 0 18.2902 2.03208 0 0 0
236 2 0.02595678789048882 1.43704 18.2902 4.06416 0 0 0
271 2 0.0197929236234355 2.87409 14.2257 2.03208 0 0 0
276 1 0.04272797965682128 4.31113 14.2257 4.06416 0 0 0
281 2 0.02585393100808928 2.87409 16.2579 4.06416 0 0 0
286 2 0.02555059870825108 4.31113 16.2579 6.09717 0 0 0
291 2 0.02219227291890771 2.87409 18.2902 6.09717 0 0 0
331 1 0.04348289511344669 2.87409 14.2257 6.09717 0 0 0
426 2 0.0328576060585754 4.31113 18.2902 0 0 0 0
466 2 0.03635821757389113 4.31113 14.2257 0 0 0 0
471 2 0.03690344210338427 2.87409 16.2579 0 0 0 0
476 2 0.02439082306387068 4.31113 16.2579 2.03208 0 0 0
481 2 0.02423841114365049 2.87409 18.2902 2.03208 0 0 0
486 2 0.02586264659535098 4.31113 18.2902 4.06416 0 0 0
521 2 0.02356260728630608 5.74797 14.2257 2.03208 0 0 0
531 2 0.02710396048305627 5.74797 16.2579 4.06416 0 0 0
541 2 0.02595330126447574 5.74797 18.2902 6.09717 0 0 0
581 2 0.02296242246089705 5.74797 14.2257 6.09717 0 0 0
721 2 0.03499357165615694 5.74797 16.2579 0 0 0 0
731 2 0.02702476671832827 5.74797 18.2902 2.03208 0 0 0
526 2 0.02586047996505077 7.18501 14.2257 4.06416 0 0 0
536 2 0.02367888939248308 7.18501 16.2579 6.09717 0 0 0
676 2 0.03537735210019521 7.18501 18.2902 0 0 0 0
716 2 0.03617321311463557 7.18501 14.2257 0 0 0 0
726 2 0.02591804962300964 7.18501 16.2579 2.03208 0 0 0
736 2 0.02568896493636644 7.18501 18.2902 4.06416 0 0 0
771 2 0.02506352759874947 8.62206 14.2257 2.03208 0 0 0
781 2 0.02447518360301544 8.62206 16.2579 4.06416 0 0 0
791 1 0.04143932748381746 8.62206 18.2902 6.09717 0 0 0
831 1 0.04825360735068777 8.62206 14.2257 6.09717 0 0 0
971 2 0.03247609913816594 8.62206 16.2579 0 0 0 0
981 2 0.02044400087618399 8.62206 18.2902 2.03208 0 0 0
776 2 0.02367476237317798 10.0591 14.2257 4.06416 0 0 0
786 2 0.0215457859984636 10.0591 16.2579 6.09717 0 0 0
926 1 0.0538117421411568 10.0591 18.2902 0 0 0 0
966 2 0.03464367131493265 10.0591 14.2257 0 0 0 0
976 2 0.02495067791593315 10.0591 16.2579 2.03208 0 0 0
986 1 0.04482888740249392 10.0591 18.2902 4.06416 0 0 0
1021 2 0.01928915535868123 11.4961 14.2257 2.03208 0 0 0
1026 1 0.04634306702680916 12.9332 14.2257 4.06416 0 0 0
1031 2 0.02494204967236228 11.4961 16.2579 4.06416 0 0 0
1036 2 0.0282504370506396 12.9332 16.2579 6.09717 0 0 0
1041 2 0.02179995216357816 11.4961 18.2902 6.09717 0 0 0
1081 2 0.02554087989027018 11.4961 14.2257 6.09717 0 0 0
1176 2 0.03306015270162842 12.9332 18.2902 0 0 0 0
1216 2 0.0290791564409173 12.9332 14.2257 0 0 0 0
1221 2 0.03330481894107045 11.4961 16.2579 0 0 0 0
1226 2 0.02356052220999732 12.9332 16.2579 2.03208 0 0 0
1231 2 0.02051296352111565 11.4961 18.2902 2.03208 0 0 0
1236 2 0.02922854153203868 12.9332 18.2902 4.06416 0 0 0
1271 2 0.01502114760060092 14.3702 14.2257 2.03208 0 0 0
1276 2 0.02913763028481335 15.8071 14.2257 4.06416 0 0 0
1281 2 0.02427290470949619 14.3702 16.2579 4.06416 0 0 0
1286 2 0.02437244432020463 15.8071 16.2579 6.09717 0 0 0
1291 2 0.02742009091267455 14.3702 18.2902 6.09717 0 0 0
1331 2 0.02373080577390237 14.3702 14.2257 6.09717 0 0 0
1426 2 0.03135731713552655 15.8071 18.2902 0 0 0 0
1466 1 0.04896545194554763 15.8071 14.2257 0 0 0 0
1471 1 0.04981816892369816 14.3702 16.2579 0 0 0 0
1476 1 0.04320521325588565 15.8071 16.2579 2.03208 0 0 0
1481 2 0.02063415594654549 14.3702 18.2902 2.03208 0 0 0
1486 2 0.02281325916342074 15.8071 18.2902 4.06416 0 0 0
1521 2 0.02134911096504766 17.2441 14.2257 2.03208 0 0 0
1526 2 0.02477391386669666 18.6812 14.2257 4.06416 0 0 0
1531 2 0.02581372851873814 17.2441 16.2579 4.06416 0 0 0
1536 2 0.02360153759148932 18.6812 16.2579 6.09717 0 0 0
1541 1 0.04609108707218419 17.2441 18.2902 6.09717 0 0 0
1581 2 0.02513560095133131 17.2441 14.2257 6.09717 0 0 0
1676 1 0.05492787056271282 18.6812 18.2902 0 0 0 0
1716 2 0.03490869986817876 18.6812 14.2257 0 0 0 0
1721 2 0.02805161087342742 17.2441 16.2579 0 0 0 0
1726 2 0.01995658054534413 18.6812 16.2579 2.03208 0 0 0
1731 2 0.01668953347282748 17.2441 18.2902 2.03208 0 0 0
1736 2 0.02140096419139524 18.6812 18.2902 4.06416 0 0 0
1 2 0.02363258103507768 0.03396932818621477 0.0470460967108884 8.07340633446307 0 0 0
7 2 0.020907906547246 1.3399499244082145 20.313614375325383 10.145834771306124 0 -1 0
12 2 0.02772575502772715 0.01447336977202364 2.064666329966848 10.095214976446421 0 0 0
17 2 0.02338680578174439 1.426938025884654 2.0347240233592596 12.148063578316345 0 0 0
22 2 0.02334221407508074 20.0848149663547 4.012366434060338 12.207542002756295 -1 0 0
62 2 0.02243174039139455 0.027121197827007542 20.288875387288943 12.243572552863789 0 -1 0
166 1 0.04085432727640748 1.4341315170798425 6.061491270119787 8.142952598641575 0 0 0
206 2 0.02323513753504474 1.4561617050730402 2.0528853908881306 8.154056674637971 0 0 0
211 1 0.04301768195934929 20.093681385094403 4.055606995189348 8.11832717092897 -1 0 0
217 2 0.02026858151922247 1.4262831529066236 4.068317741762611 10.16703442543187 0 0 0
222 2 0.0232399121589286 20.061938807679986 6.047799247783317 10.157729873350299 -1 0 0
227 1 0.04191225779235502 1.4044855980935096 6.083702613793186 12.215769391338648 0 0 0
251 1 0.04272829000175279 2.8635570108523454 20.321411245355154 8.147781315484192 0 -1 0
257 2 0.02196106063594001 4.343078208894822 20.30241743389882 10.148070097319128 0 -1 0
262 2 0.02756831540243599 2.9177689075665003 1.9768022828013647 10.17934623420204 0 0 0
267 2 0.02023054968599708 4.313151865212835 2.003044290067092 12.190817621665913 0 0 0
272 1 0.04152336832560184 2.8814717535337557 4.061760120107008 12.187568125533575 0 0 0
312 1 0.04925650921273746 2.880835228570633 20.29570974891953 12.162755007573695 0 -1 0
416 2 0.02389677352182928 4.273305117103569 6.084332210426257 8.108294124624436 0 0 0
456 2 0.01765075422939503 4.368423984689424 2.0078340714397083 8.122264822627828 0 0 0
461 2 0.02464418814110438 2.888972670942734 4.012905435280399 8.12674087094792 0 0 0
467 2 0.01764240582096343 4.291135954871518 4.057953283982995 10.129989901280355 0 0 0
472 1 0.0433906385973765 2.8579125028392447 6.097026640322304 10.186271665720565 0 0 0
477 2 0.01799742540657778 4.277320933233314 6.138226251795084 12.225988806034342 0 0 0
501 2 0.02410811271662312 5.732594291270081 20.30649104567965 8.144944337461231 0 -1 0
512 1 0.04178954231929907 5.771167422671374 2.052037544310028 10.174368319745879 0 0 0
522 1 0.04643865237936069 5.6861723891572415 4.088082756825885 12.212408014474377 0 0 0
562 2 0.02454648997916103 5.777481490789529 0.009038877250846886 12.143102636012967 0 0 0
711 1 0.04473581113559961 5.774324220985732 4.093478207861378 8.143948960003497 0 0 0
722 2 0.02287597739876494 5.71279066588042 6.109228437848546 10.18721281917959 0 0 0
507 2 0.02335950066935586 7.162928062913022 20.307114355672518 10.124053796186892 0 -1 0
517 2 0.01691564609346873 7.1502339463854865 2.0397554283954538 12.237424601660159 0 0 0
666 2 0.02352810814775991 7.155754639886413 6.182643202874497 8.113182894825048 0 0 0
706 1 0.04005242841738615 7.22288847798632 2.054432371233914 8.162834505640372 0 0 0
717 1 0.03447739548029664 7.2110119357153835 4.067654068133012 10.202022176139591 0 0 0
727 2 0.02105709169667529 7.20506458000607 6.059979652851048 12.197952783230326 0 0 0
751 2 0.02161986428282469 8.623356370604872 20.285146115445414 8.104595590274057 0 -1 0
762 1 0.03774322458516155 8.648560608096401 1.9699338867328575 10.237778067063743 0 0 0
772 2 0.02232533572531557 8.594738436573984 3.9970429454724785 12.270495466604437 0 0 0
812 1 0.04041106218858512 8.65305961961794 0.02318093840374342 12.192947635813704 0 0 0
961 2 0.01589688886483298 8.589040317487106 4.172394685852043 8.116634783337759 0 0 0
972 1 0.04452455649223054 8.632533782234058 6.12152430936552 10.129085546382003 0 0 0
757 2 0.02179163407984302 10.066975882699781 20.2264736550758 10.082764879154077 0 -1 0
767 2 0.01797562082186279 10.135999763589629 2.055619901189407 12.250738877393093 0 0 0
916 2 0.02525282843134299 10.150179352285543 6.080607046147999 8.117851047590907 0 0 0
956 1 0.04084690210896207 10.01518457130854 2.084716520161118 8.140159386421999 0 0 0
967 1 0.04088444298522964 10.024326677071759 4.050003530600801 10.175746077441858 0 0 0
977 2 0.02536566711121513 10.03293086922275 6.043814106190388 12.196448478498704 0 0 0
1001 2 0.02245536129837548 11.470559266688628 20.318739571272356 8.097877951265541 0 -1 0
1007 2 0.02334281123879671 12.988274846869086 0.031209262118931023 10.096566599574505 0 0 0
1012 1 0.03896223271067339 11.468618493189915 2.0018139879115653 10.153262492513482 0 0 0
1017 1 0.04596167151829461 12.936171528628156 2.0388049751117037 12.21539052640404 0 0 0
1022 2 0.0248332758359097 11.499200916122978 4.086276689137056 12.197485373396145 0 0 0
1062 2 0.02065107922365257 11.468221400614214 0.00989502321663456 12.111398530273814 0 0 0
1166 1 0.04429212996777255 12.957457526923543 6.144400576642473 8.144926861872039 0 0 0
1206 1 0.04185878918767107 12.931500772342591 2.02716390080886 8.127585160039246 0 0 0
1211 2 0.01829036734991322 11.543871546181322 4.080274957843812 8.158962125994494 0 0 0
1217 2 0.01922287514483273 12.925843761066794 4.0506836283539345 10.20820538606652 0 0 0
1222 2 0.02285224858483687 11.493222234498246 6.118455479939304 10.177563663967298 0 0 0
1227 2 0.02605073459919899 12.917240306104635 6.111035723149319 12.183993153321728 0 0 0
1251 2 0.02583713001940855 14.392736678619505 0.006468740896408252 8.073686313153457 0 0 0
1257 2 0.02407998755847388 15.846891346202781 0.01587167730616906 10.097725044047115 0 0 0
1262 2 0.02108672445801461 14.363264585503376 2.012522254318083 10.153726903800646 0 0 0
1267 2 0.01830554159532233 15.713251918049426 2.081746554606309 12.179367840432553 0 0 0
1272 2 0.02124436820071147 14.335653605335068 4.117699509623156 12.258090667429773 0 0 0
1312 1 0.04160853711813227 14.374274842145244 20.290843698691322 12.187893439287638 0 -1 0
1416 1 0.03649433075518152 15.814798503680288 6.090104589947918 8.155821199453461 0 0 0
1456 2 0.02415014535413389 15.849561160451668 2.048966892866574 8.155842408681696 0 0 0
1461 1 0.03678647779635033 14.369880750361395 4.070107066664435 8.155084076936308 0 0 0
1467 1 0.03907279451997552 15.792590377390354 4.088939332302413 10.215389354285708 0 0 0
1472 1 0.03744841629583327 14.360771159487085 6.115164769356837 10.178541526957165 0 0 0
1477 1 0.03537493786890118 15.82724326786268 6.091912192870042 12.205871332696558 0 0 0
1501 2 0.02574043589816094 17.251897857831743 20.2736436675466 8.070892948125943 0 -1 0
1507 1 0.04548969670739245 18.696382606992923 20.318523694031324 10.148483438530095 0 -1 0
1512 2 0.02415689393744952 17.226229205877903 2.0345299469035316 10.224759398640348 0 0 0
1517 2 0.01897997848295757 18.739801554814786 1.9584334788631133 12.111701491943505 0 0 0
1522 1 0.0436454393656458 17.280225219715206 4.047183488130302 12.239088765327672 0 0 0
1562 1 0.04036022854917158 17.19562790282985 0.0224812299560943 12.171522914623521 0 0 0
1666 2 0.01720725445004645 18.65633511884389 6.094695799230267 8.13821200546493 0 0 0
1706 2 0.02535248066830607 18.643452027784964 1.9910646732629358 8.145535518451256 0 0 0
1711 2 0.01807852311216059 17.27397870175736 4.066825119621727 8.171380699059352 0 0 0
1717 2 0.02366517050398669 18.64906730516903 4.02821141431437 10.170535749734167 0 0 0
1722 1 0.03879623750020983 17.260353232955428 6.1073795445969745 10.215130633512048 0 0 0
1727 2 0.02065964144818092 18.749722391445893 6.086013516923172 12.22233181782728 0 0 0
171 2 0.02436415338462555 20.112085525583726 8.097220988639233 8.073663737228426 -1 0 0
177 2 0.02304096785466928 1.3873384079029007 8.10020230291477 10.1280100915654 0 0 0
232 2 0.02552852031633024 20.065383168450698 8.158906037172306 12.186011155289743 -1 0 0
421 2 0.02320486843186718 2.8701188318644517 8.115604165075846 8.138584666114154 0 0 0
427 2 0.02447083145600636 4.296931905773634 8.149055495119052 10.142561992943953 0 0 0
482 2 0.02420847808699796 2.891549738234925 8.136213955229186 12.126089704798764 0 0 0
671 2 0.02757635932774972 5.70232328333416 8.135064229817749 8.13597702380896 0 0 0
732 1 0.04889038287686068 5.762231592321318 8.144270993421225 12.181995732296603 0 0 0
126 1 0.04757301317450999 1.4336462217481907 10.173667493755094 8.1506753481972 0 0 0
131 2 0.02197219191470486 20.07217993635013 12.231716077131543 8.088536751800236 -1 0 0
137 2 0.02515725333957822 1.3713721913967292 12.164922702064374 10.115399481634501 0 0 0
182 2 0.02352165963630996 0.004984244495583516 10.143853379684565 10.205421033097712 0 0 0
187 2 0.02872513756787286 1.436120296500876 10.149134128635614 12.196746010351271 0 0 0
192 2 0.02474549853771801 0.03211453156727824 12.265706728441385 12.2409313520294 0 0 0
376 2 0.02728256614135887 4.254151065017799 10.18779984208415 8.130024542560253 0 0 0
381 2 0.02434645384964691 2.865002256852463 12.257989170190806 8.106375552390785 0 0 0
387 2 0.02749359610931345 4.304208228685577 12.195186900054118 10.151810712980806 0 0 0
432 2 0.02588924130106804 2.8730246889174285 10.170212075555193 10.19406517946361 0 0 0
437 2 0.02501910292671643 4.315334851401813 10.204582752883201 12.233978423035715 0 0 0
442 2 0.02756922818852846 2.8495092608928503 12.207361353056026 12.169823211623081 0 0 0
631 2 0.02908271125686222 5.748511663154235 12.159711444889837 8.122282553041993 0 0 0
682 2 0.02637548278015904 5.717490533274538 10.154008250162942 10.18493776783371 0 0 0
692 2 0.02804598730937602 5.746368267079274 12.198288052207031 12.197769062116818 0 0 0
677 2 0.02336429222604712 7.1814804915688555 8.136838250920942 10.125836039177814 0 0 0
921 2 0.02420241304848668 8.683772039603351 8.10625239818111 8.134423103213841 0 0 0
982 2 0.02537021061910993 8.597802026169592 8.119180282628612 12.166663381683149 0 0 0
626 2 0.02389127420572257 7.153574739750946 10.116007621022053 8.132467071313652 0 0 0
637 2 0.02758610080589408 7.194695595580217 12.17242528366488 10.14484919076775 0 0 0
687 2 0.02243470755472751 7.207446478115589 10.193439586369658 12.166947320423027 0 0 0
881 2 0.02632668158096097 8.612583037262853 12.189910452059804 8.079206876962699 0 0 0
932 2 0.02984997819514441 8.593654609247718 10.153857179264014 10.141580620319786 0 0 0
942 2 0.02778083406402363 8.643271744086817 12.178617272691715 12.226781608086554 0 0 0
927 2 0.02664172760113835 10.078457260482779 8.127513773743747 10.169310817387105 0 0 0
1171 2 0.02583501599884266 11.49870753261968 8.189473672646189 8.097155291367923 0 0 0
1177 2 0.02519407689366542 12.915920042608828 8.170797089939919 10.174423453637123 0 0 0
1232 2 0.026351146254084 11.454733799920982 8.114473605526246 12.206628639634701 0 0 0
876 2 0.02465213990497091 10.028995922802267 10.186833010244202 8.142514972185882 0 0 0
887 2 0.02545563084891464 10.075134756293988 12.167388736252548 10.144121746605261 0 0 0
937 2 0.02182921848852611 10.07450389873919 10.147530352227031 12.11149854577056 0 0 0
1126 2 0.02600138103635559 12.935711928752742 10.213966454514104 8.16190098710653 0 0 0
1131 2 0.02534397355475847 11.48870135934896 12.210599701940643 8.10331418711053 0 0 0
1137 1 0.04396220765486988 12.927738536901385 12.16639411067921 10.177830361410608 0 0 0
1182 2 0.02356599054550194 11.477519241062172 10.143369728081657 10.119876617120099 0 0 0
1187 1 0.04336172976858307 12.893860629745578 10.172417958241807 12.173640143637629 0 0 0
1192 2 0.02191417397516598 11.45107385288689 12.249622899997838 12.224779226411364 0 0 0
1421 2 0.02439248898158602 14.36279920348328 8.167285646169558 8.118555223300348 0 0 0
1427 2 0.02048927255982548 15.799109771075287 8.12306517594394 10.117335746176133 0 0 0
1482 2 0.02264007456560372 14.38023884711092 8.113561025206593 12.17756804291294 0 0 0
1671 2 0.02671209600753028 17.265220198427674 8.120828931185104 8.117104548991222 0 0 0
1677 2 0.02663792111884548 18.710245615921394 8.145198764466768 10.11213000602966 0 0 0
1732 1 0.04485139709955231 17.27040772262753 8.144127484986138 12.151992900419923 0 0 0
1376 2 0.02837330048931731 15.84086224193477 10.117410548410177 8.102413128366537 0 0 0
1381 2 0.02339098850294229 14.43204203641413 12.146783923363301 8.12854399930474 0 0 0
1387 2 0.02216235701218595 15.766507197592517 12.2781879074092 10.209168229988187 0 0 0
1432 2 0.02549179005555342 14.419069051449105 10.161701319493405 10.15458465123635 0 0 0
1437 2 0.02668793430653016 15.735079402740727 10.144451714175323 12.210992549080844 0 0 0
1442 2 0.02135722544415888 14.366753446512993 12.192761259703458 12.226250797300313 0 0 0
1626 2 0.02371724320419692 18.73904131752829 10.165182769926526 8.165586813691256 0 0 0
1631 1 0.04172651286830997 17.232161175876556 12.177234061099641 8.168530722697593 0 0 0
1637 1 0.04568805110611304 18.690797339295756 12.2000222361263 10.191939358115526 0 0 0
1682 2 0.02431847103409391 17.209589727976503 10.160679441675509 10.167163430858233 0 0 0
1687 2 0.02400313542327061 18.672987369873375 10.23191086056302 12.16659315618887 0 0 0
1692 2 0.02500715092658502 17.207762205068025 12.172738577317206 12.210213617276356 0 0 0
46 1 0.04557364016140983 1.4476850731396398 18.271970328543862 8.159131551669788 0 0 0
52 2 0.02421928515101607 0.002494627519111124 18.252464891730448 10.229680138738642 0 0 0
57 2 0.02536419067708767 1.4445574105352106 18.254364209804134 12.18735463230507 0 0 0
86 2 0.02681112936749656 1.3984963844185052 14.231495839189034 8.1455926011436 0 0 0
91 2 0.02639390817997547 20.09916943447183 16.251749264866557 8.117733814772915 -1 0 0
97 2 0.02642715318524425 1.4826309885740967 16.30802920877923 10.110949752233712 0 0 0
102 2 0.02466461389955324 0.011659930201695859 16.22913502565163 12.218558863502944 0 0 0
142 2 0.02662881997400762 0.0006751573021952 14.26902439524112 10.185997650042832 0 0 0
147 2 0.02595709955657993 1.459760798982153 14.247610990067399 12.152160718653906 0 0 0
296 2 0.02385277894962707 4.285503100231116 18.2560940159746 8.112408171013954 0 0 0
302 2 0.02270499567425567 2.907154292220321 18.357697533449915 10.185222262635268 0 0 0
307 2 0.02480170202756423 4.3463049535756335 18.270464438503573 12.221609623515587 0 0 0
336 2 0.02556762776909612 4.363341946232539 14.22227345531552 8.153945039704723 0 0 0
341 2 0.02446171823530504 2.8914054084423944 16.195211979692694 8.092241734454507 0 0 0
347 2 0.02736354561165138 4.314052485266611 16.270508394705242 10.145694872129434 0 0 0
352 2 0.02872836156801119 2.8914355007367316 16.27116781613797 12.156168932403512 0 0 0
392 2 0.02791808380073962 2.8693708323652145 14.219480097187667 10.145608862526542 0 0 0
397 2 0.02640024972772451 4.293403936895398 14.226415651181226 12.201512878635638 0 0 0
552 2 0.02989906443392886 5.7405292279360705 18.25063825043097 10.170512267140275 0 0 0
591 2 0.02898848962805753 5.760821165667988 16.25753131988898 8.128078238865346 0 0 0