LAMMPS data file via write_data, version 22 Dec 2022, timestep = 0

1946 atoms
3 atom types

0 20.1182 xlo xhi
0 20.3224 ylo yhi
0 93.7738 zlo zhi

Masses

1 52
2 55.84
3 16

Atoms # charge

51 2 -0.00455836 0 8.12896 0 0 0 0
56 2 -0.00712981 1.43704 8.12896 2.03208 0 0 0
96 2 -0.00411888 1.43704 6.09672 0 0 0 0
101 1 0.0231502 0 6.09672 2.03208 0 0 0
106 2 -0.00878981 1.43704 6.09672 4.06416 0 0 0
111 2 -0.00500809 0 8.12896 4.06416 0 0 0
116 2 -0.00647939 1.43704 8.12896 6.09717 0 0 0
136 2 -0.00320275 1.43704 2.03224 0 0 0 0
141 2 -0.00130344 0 4.06448 0 0 0 0
146 2 -0.00530605 1.43704 4.06448 2.03208 0 0 0
151 2 -0.00601052 0 4.06448 4.06416 0 0 0
156 2 -0.008205519999999999 1.43704 4.06448 6.09717 0 0 0
161 1 0.0192431 0 6.09672 6.09717 0 0 0
181 2 -0.00617422 0 0 0 0 0 0
186 2 -0.00505157 1.43704 0 2.03208 0 0 0
191 2 -0.00271135 0 2.03224 2.03208 0 0 0
196 2 -0.00493968 1.43704 2.03224 4.06416 0 0 0
201 2 -0.00514269 0 2.03224 6.09717 0 0 0
241 2 -0.00536694 0 0 4.06416 0 0 0
246 2 -0.00881408 1.43704 0 6.09717 0 0 0
301 2 -0.00244003 2.87409 8.12896 0 0 0 0
306 2 -0.00582494 4.31113 8.12896 2.03208 0 0 0
346 2 -0.00582157 4.31113 6.09672 0 0 0 0
351 1 0.0216886 2.87409 6.09672 2.03208 0 0 0
356 2 -0.00515312 4.31113 6.09672 4.06416 0 0 0
361 1 0.0240642 2.87409 8.12896 4.06416 0 0 0
366 2 -0.00289037 4.31113 8.12896 6.09717 0 0 0
386 2 -0.009085569999999999 4.31113 2.03224 0 0 0 0
391 2 -0.0049267 2.87409 4.06448 0 0 0 0
396 1 0.0211582 4.31113 4.06448 2.03208 0 0 0
401 2 -0.00580659 2.87409 4.06448 4.06416 0 0 0
406 2 -0.00551287 4.31113 4.06448 6.09717 0 0 0
411 2 -0.00524729 2.87409 6.09672 6.09717 0 0 0
431 1 0.024359 2.87409 0 0 0 0 0
436 2 -0.00627211 4.31113 0 2.03208 0 0 0
441 2 -0.00635859 2.87409 2.03224 2.03208 0 0 0
446 2 -0.008443829999999999 4.31113 2.03224 4.06416 0 0 0
451 1 0.0213371 2.87409 2.03224 6.09717 0 0 0
491 1 0.0227621 2.87409 0 4.06416 0 0 0
496 1 0.0198553 4.31113 0 6.09717 0 0 0
551 2 -0.0037765 5.74797 8.12896 0 0 0 0
556 2 -0.00425948 7.18501 8.12896 2.03208 0 0 0
596 1 0.0219513 7.18501 6.09672 0 0 0 0
601 2 -0.00604759 5.74797 6.09672 2.03208 0 0 0
606 2 -0.00277892 7.18501 6.09672 4.06416 0 0 0
611 2 -0.00389736 5.74797 8.12896 4.06416 0 0 0
616 1 0.0254021 7.18501 8.12896 6.09717 0 0 0
636 1 0.0206567 7.18501 2.03224 0 0 0 0
641 2 -0.0104764 5.74797 4.06448 0 0 0 0
646 2 -0.00812037 7.18501 4.06448 2.03208 0 0 0
651 2 -0.00518146 5.74797 4.06448 4.06416 0 0 0
656 2 -0.00711025 7.18501 4.06448 6.09717 0 0 0
661 2 -0.00314472 5.74797 6.09672 6.09717 0 0 0
681 2 -0.00706712 5.74797 0 0 0 0 0
686 2 -0.00436606 7.18501 0 2.03208 0 0 0
691 1 0.0209246 5.74797 2.03224 2.03208 0 0 0
696 2 -0.00519509 7.18501 2.03224 4.06416 0 0 0
701 2 -0.0076986 5.74797 2.03224 6.09717 0 0 0
741 2 -0.00493091 5.74797 0 4.06416 0 0 0
746 2 -0.00562112 7.18501 0 6.09717 0 0 0
801 2 -0.0110261 8.62206 8.12896 0 0 0 0
851 2 -0.00551043 8.62206 6.09672 2.03208 0 0 0
861 2 -0.00599013 8.62206 8.12896 4.06416 0 0 0
891 2 -0.00892945 8.62206 4.06448 0 0 0 0
901 1 0.0240734 8.62206 4.06448 4.06416 0 0 0
911 2 -0.00537177 8.62206 6.09672 6.09717 0 0 0
931 2 -0.00626056 8.62206 0 0 0 0 0
941 2 -0.00494822 8.62206 2.03224 2.03208 0 0 0
951 2 -0.00875271 8.62206 2.03224 6.09717 0 0 0
991 2 -0.00373891 8.62206 0 4.06416 0 0 0
1 2 -0.00474949 0 0 8.12925 0 0 0
7 2 -0.00589177 1.43704 0 10.1613 0 0 0
12 2 -0.00412298 0 2.03224 10.1613 0 0 0
17 2 -0.00849375 1.43704 2.03224 12.1934 0 0 0
22 2 -0.009049130000000001 0 4.06448 12.1934 0 0 0
27 1 0.0199262 1.43704 4.06448 14.2255 0 0 0
32 2 -0.0038323 0 6.09672 14.2255 0 0 0
62 2 -0.0103925 0 0 12.1934 0 0 0
67 2 -0.0145491 1.43704 0 14.2255 0 0 0
72 1 0.0133955 0 2.03224 14.2255 0 0 0
166 1 0.0197885 1.43704 6.09672 8.12925 0 0 0
171 2 -0.00665044 0 8.12896 8.12925 0 0 0
177 2 -0.00620609 1.43704 8.12896 10.1613 0 0 0
206 2 -0.00661432 1.43704 2.03224 8.12925 0 0 0
211 1 0.02092 0 4.06448 8.12925 0 0 0
217 2 -0.008980220000000001 1.43704 4.06448 10.1613 0 0 0
222 2 -0.0095517 0 6.09672 10.1613 0 0 0
227 1 0.0210244 1.43704 6.09672 12.1934 0 0 0
232 2 -0.00259917 0 8.12896 12.1934 0 0 0
237 2 -0.00025249 1.43704 8.12896 14.2255 0 0 0
251 1 0.0203606 2.87409 0 8.12925 0 0 0
257 2 -0.00619745 4.31113 0 10.1613 0 0 0
262 2 -0.00666452 2.87409 2.03224 10.1613 0 0 0
267 2 -0.008860369999999999 4.31113 2.03224 12.1934 0 0 0
272 1 0.0192672 2.87409 4.06448 12.1934 0 0 0
277 2 -0.0060117 4.31113 4.06448 14.2255 0 0 0
282 2 -0.00527803 2.87409 6.09672 14.2255 0 0 0
312 1 0.0258126 2.87409 0 12.1934 0 0 0
317 2 -0.00487638 4.31113 0 14.2255 0 0 0
322 2 -0.00947856 2.87409 2.03224 14.2255 0 0 0
416 2 -0.0063886 4.31113 6.09672 8.12925 0 0 0
421 2 -0.00518836 2.87409 8.12896 8.12925 0 0 0
427 2 -0.00527994 4.31113 8.12896 10.1613 0 0 0
456 2 -0.0112991 4.31113 2.03224 8.12925 0 0 0
461 2 -0.008416460000000001 2.87409 4.06448 8.12925 0 0 0
467 2 -0.0129209 4.31113 4.06448 10.1613 0 0 0
472 1 0.0196928 2.87409 6.09672 10.1613 0 0 0
477 2 -0.010326 4.31113 6.09672 12.1934 0 0 0
482 2 -0.00498539 2.87409 8.12896 12.1934 0 0 0
487 2 -0.00415557 4.31113 8.12896 14.2255 0 0 0
501 2 -0.00772066 5.74797 0 8.12925 0 0 0
507 2 -0.00979845 7.18501 0 10.1613 0 0 0
512 1 0.016476 5.74797 2.03224 10.1613 0 0 0
517 2 -0.0147797 7.18501 2.03224 12.1934 0 0 0
522 1 0.0195541 5.74797 4.06448 12.1934 0 0 0
527 2 -0.00564716 7.18501 4.06448 14.2255 0 0 0
532 2 -0.00402025 5.74797 6.09672 14.2255 0 0 0
562 2 -0.0060915 5.74797 0 12.1934 0 0 0
567 1 0.0192602 7.18501 0 14.2255 0 0 0
572 2 -0.00777038 5.74797 2.03224 14.2255 0 0 0
666 2 -0.0074185 7.18501 6.09672 8.12925 0 0 0
671 2 -0.00229986 5.74797 8.12896 8.12925 0 0 0
677 2 -0.00436251 7.18501 8.12896 10.1613 0 0 0
706 1 0.0160246 7.18501 2.03224 8.12925 0 0 0
711 1 0.0191827 5.74797 4.06448 8.12925 0 0 0
717 1 0.0119559 7.18501 4.06448 10.1613 0 0 0
722 2 -0.0102115 5.74797 6.09672 10.1613 0 0 0
727 2 -0.00758081 7.18501 6.09672 12.1934 0 0 0
732 1 0.0248665 5.74797 8.12896 12.1934 0 0 0
737 2 -0.00526572 7.18501 8.12896 14.2255 0 0 0
751 2 -0.0103542 8.62206 0 8.12925 0 0 0
762 1 0.0117223 8.62206 2.03224 10.1613 0 0 0
772 2 -0.009804709999999999 8.62206 4.06448 12.1934 0 0 0
782 2 0.000287785 8.62206 6.09672 14.2255 0 0 0
812 1 0.0153656 8.62206 0 12.1934 0 0 0
822 1 0.0182837 8.62206 2.03224 14.2255 0 0 0
921 2 -0.00379363 8.62206 8.12896 8.12925 0 0 0
961 2 -0.0154702 8.62206 4.06448 8.12925 0 0 0
972 1 0.0214646 8.62206 6.09672 10.1613 0 0 0
982 2 -0.0030979 8.62206 8.12896 12.1934 0 0 0
37 2 -0.00249619 1.43704 6.09672 16.2576 0 0 0
42 2 8.50825e-05 0 8.12896 16.2576 0 0 0
47 2 -0.00595012 1.43704 8.12896 18.2906 0 0 0
53 1 0.0253471 0 8.12896 20.3227 0 0 0
58 2 -0.0059466 1.43704 8.12896 22.3547 0 0 0
77 1 0.0151959 1.43704 2.03224 16.2576 0 0 0
82 2 -0.0073308 0 4.06448 16.2576 0 0 0
87 2 -0.00620178 1.43704 4.06448 18.2906 0 0 0
92 2 -0.00131449 0 6.09672 18.2906 0 0 0
98 2 -0.00645171 1.43704 6.09672 20.3227 0 0 0
103 2 -0.00387179 0 6.09672 22.3547 0 0 0
122 1 0.009741130000000001 0 0 16.2576 0 0 0
127 1 0.0177234 1.43704 0 18.2906 0 0 0
132 2 -0.008872120000000001 0 2.03224 18.2906 0 0 0
138 2 -0.00808416 1.43704 2.03224 20.3227 0 0 0
143 2 -0.000819062 0 4.06448 20.3227 0 0 0
148 2 -0.00476359 1.43704 4.06448 22.3547 0 0 0
183 2 -0.00717005 0 0 20.3227 0 0 0
188 2 -0.0063438 1.43704 0 22.3547 0 0 0
193 2 -0.00326634 0 2.03224 22.3547 0 0 0
287 2 -0.00463249 4.31113 6.09672 16.2576 0 0 0
292 2 -0.00306617 2.87409 8.12896 16.2576 0 0 0
297 2 -0.00837063 4.31113 8.12896 18.2906 0 0 0
303 2 -0.00773084 2.87409 8.12896 20.3227 0 0 0
308 2 -0.00443406 4.31113 8.12896 22.3547 0 0 0
327 2 -0.00823834 4.31113 2.03224 16.2576 0 0 0
332 2 -0.00658644 2.87409 4.06448 16.2576 0 0 0
337 2 -0.0108705 4.31113 4.06448 18.2906 0 0 0
342 1 0.0237814 2.87409 6.09672 18.2906 0 0 0
348 2 -0.00902417 4.31113 6.09672 20.3227 0 0 0
353 2 -0.00575951 2.87409 6.09672 22.3547 0 0 0
372 1 0.0196615 2.87409 0 16.2576 0 0 0
377 2 -0.009918919999999999 4.31113 0 18.2906 0 0 0
382 2 -0.0113451 2.87409 2.03224 18.2906 0 0 0
388 2 -0.0122967 4.31113 2.03224 20.3227 0 0 0
393 1 0.0214096 2.87409 4.06448 20.3227 0 0 0
398 2 -0.00648169 4.31113 4.06448 22.3547 0 0 0
433 1 0.020022 2.87409 0 20.3227 0 0 0
438 2 -0.00890379 4.31113 0 22.3547 0 0 0
443 1 0.0236645 2.87409 2.03224 22.3547 0 0 0
537 2 -0.00348106 7.18501 6.09672 16.2576 0 0 0
542 1 0.0252832 5.74797 8.12896 16.2576 0 0 0
547 2 -0.00750764 7.18501 8.12896 18.2906 0 0 0
553 2 -0.00674064 5.74797 8.12896 20.3227 0 0 0
558 2 -0.00283979 7.18501 8.12896 22.3547 0 0 0
577 1 0.0198203 7.18501 2.03224 16.2576 0 0 0
582 2 -0.00606895 5.74797 4.06448 16.2576 0 0 0
587 1 0.0183353 7.18501 4.06448 18.2906 0 0 0
592 2 -0.00931995 5.74797 6.09672 18.2906 0 0 0
598 1 0.019817 7.18501 6.09672 20.3227 0 0 0
603 2 -0.00401202 5.74797 6.09672 22.3547 0 0 0
622 2 -0.00710287 5.74797 0 16.2576 0 0 0
627 2 -0.00951663 7.18501 0 18.2906 0 0 0
632 1 0.0179319 5.74797 2.03224 18.2906 0 0 0
638 1 0.0194233 7.18501 2.03224 20.3227 0 0 0
643 1 0.0168484 5.74797 4.06448 20.3227 0 0 0
648 2 -0.00655471 7.18501 4.06448 22.3547 0 0 0
683 2 -0.0111147 5.74797 0 20.3227 0 0 0
688 2 -0.007930660000000001 7.18501 0 22.3547 0 0 0
693 2 -0.00595334 5.74797 2.03224 22.3547 0 0 0
792 2 -0.00540618 8.62206 8.12896 16.2576 0 0 0
803 1 0.0228771 8.62206 8.12896 20.3227 0 0 0
832 2 -0.0043376 8.62206 4.06448 16.2576 0 0 0
842 2 -0.008371 8.62206 6.09672 18.2906 0 0 0
853 2 -0.00758159 8.62206 6.09672 22.3547 0 0 0
872 2 -0.0113408 8.62206 0 16.2576 0 0 0
882 2 -0.0090997 8.62206 2.03224 18.2906 0 0 0
893 2 -0.0112987 8.62206 4.06448 20.3227 0 0 0
933 2 -0.00759586 8.62206 0 20.3227 0 0 0
943 2 -0.00918098 8.62206 2.03224 22.3547 0 0 0
3 2 -0.00332109 0 0 28.451 0 0 0
9 2 -0.00415281 1.43704 0 30.484 0 0 0
14 2 -0.0113285 0 2.03224 30.484 0 0 0
108 1 0.0240459 1.43704 6.09672 24.3868 0 0 0
113 2 -0.00428909 0 8.12896 24.3868 0 0 0
118 2 -0.00293587 1.43704 8.12896 26.4189 0 0 0
153 2 -0.00453518 0 4.06448 24.3868 0 0 0
158 2 -0.00591476 1.43704 4.06448 26.4189 0 0 0
163 2 -0.0057282 0 6.09672 26.4189 0 0 0
168 2 -0.00444932 1.43704 6.09672 28.451 0 0 0
173 2 -0.00316955 0 8.12896 28.451 0 0 0
179 2 -0.00204891 1.43704 8.12896 30.484 0 0 0
198 2 -0.0035405 1.43704 2.03224 24.3868 0 0 0
203 2 -0.00591917 0 2.03224 26.4189 0 0 0
208 2 -0.00514881 1.43704 2.03224 28.451 0 0 0
213 2 -0.00856788 0 4.06448 28.451 0 0 0
219 2 -0.00811075 1.43704 4.06448 30.484 0 0 0
224 2 -0.00423907 0 6.09672 30.484 0 0 0
243 2 -0.00513435 0 0 24.3868 0 0 0
248 2 -0.00287269 1.43704 0 26.4189 0 0 0
253 2 -6.820680000000001e-05 2.87409 0 28.451 0 0 0
259 2 -0.00103792 4.31113 0 30.484 0 0 0
264 2 -0.00703228 2.87409 2.03224 30.484 0 0 0
358 2 -0.00321118 4.31113 6.09672 24.3868 0 0 0
363 1 0.0246824 2.87409 8.12896 24.3868 0 0 0
368 2 -0.00454703 4.31113 8.12896 26.4189 0 0 0
403 2 -0.00424113 2.87409 4.06448 24.3868 0 0 0
408 2 -0.00503002 4.31113 4.06448 26.4189 0 0 0
413 2 -0.00596915 2.87409 6.09672 26.4189 0 0 0
418 1 0.0202454 4.31113 6.09672 28.451 0 0 0
423 2 -0.00205604 2.87409 8.12896 28.451 0 0 0
429 2 -0.00448168 4.31113 8.12896 30.484 0 0 0
448 2 -0.00346879 4.31113 2.03224 24.3868 0 0 0
453 1 0.0265233 2.87409 2.03224 26.4189 0 0 0
458 2 -0.00379243 4.31113 2.03224 28.451 0 0 0
463 1 0.0227921 2.87409 4.06448 28.451 0 0 0
469 2 -0.0117289 4.31113 4.06448 30.484 0 0 0
474 2 -0.00729248 2.87409 6.09672 30.484 0 0 0
493 2 -0.00466637 2.87409 0 24.3868 0 0 0
498 2 -0.00225418 4.31113 0 26.4189 0 0 0
503 2 -0.000796969 5.74797 0 28.451 0 0 0
509 2 -0.00100214 7.18501 0 30.484 0 0 0
514 2 -0.00433021 5.74797 2.03224 30.484 0 0 0
608 2 -0.00323441 7.18501 6.09672 24.3868 0 0 0
613 2 -0.00314897 5.74797 8.12896 24.3868 0 0 0
618 1 0.0212125 7.18501 8.12896 26.4189 0 0 0
653 2 -0.000700911 5.74797 4.06448 24.3868 0 0 0
658 2 -0.0044785 7.18501 4.06448 26.4189 0 0 0
663 2 -0.00686235 5.74797 6.09672 26.4189 0 0 0
668 1 0.0168991 7.18501 6.09672 28.451 0 0 0
673 2 -0.00835488 5.74797 8.12896 28.451 0 0 0
679 2 -0.00811577 7.18501 8.12896 30.484 0 0 0
698 2 -0.00539267 7.18501 2.03224 24.3868 0 0 0
703 2 -0.00250882 5.74797 2.03224 26.4189 0 0 0
708 2 -0.0039195 7.18501 2.03224 28.451 0 0 0
713 2 -0.008079390000000001 5.74797 4.06448 28.451 0 0 0
719 2 -0.009716499999999999 7.18501 4.06448 30.484 0 0 0
724 1 0.0162152 5.74797 6.09672 30.484 0 0 0
743 2 -0.00477672 5.74797 0 24.3868 0 0 0
748 2 -0.00576398 7.18501 0 26.4189 0 0 0
753 1 0.0243101 8.62206 0 28.451 0 0 0
764 2 -0.00261541 8.62206 2.03224 30.484 0 0 0
863 2 -0.00576904 8.62206 8.12896 24.3868 0 0 0
903 2 -0.00746273 8.62206 4.06448 24.3868 0 0 0
913 2 -0.00960252 8.62206 6.09672 26.4189 0 0 0
923 2 -0.0136754 8.62206 8.12896 28.451 0 0 0
953 1 0.0223396 8.62206 2.03224 26.4189 0 0 0
963 2 -0.00766604 8.62206 4.06448 28.451 0 0 0
974 1 0.0172675 8.62206 6.09672 30.484 0 0 0
993 1 0.0220683 8.62206 0 24.3868 0 0 0
19 1 0.0133772 1.43704 2.03224 32.5161 0 0 0
24 1 0.0194523 0 4.06448 32.5161 0 0 0
29 2 -0.0122175 1.43704 4.06448 34.5481 0 0 0
34 2 -0.008259610000000001 0 6.09672 34.5481 0 0 0
39 2 -0.00722255 1.43704 6.09672 36.5802 0 0 0
44 2 -0.00926578 0 8.12896 36.5802 0 0 0
49 2 -0.005882 1.43704 8.12896 38.6123 0 0 0
64 1 0.0165871 0 0 32.5161 0 0 0
69 1 0.0152674 1.43704 0 34.5481 0 0 0
74 1 0.0111685 0 2.03224 34.5481 0 0 0
79 2 -0.00985018 1.43704 2.03224 36.5802 0 0 0
84 2 -0.00989524 0 4.06448 36.5802 0 0 0
89 1 0.0237303 1.43704 4.06448 38.6123 0 0 0
94 1 0.02005 0 6.09672 38.6123 0 0 0
124 2 -0.008708570000000001 0 0 36.5802 0 0 0
129 2 -0.00151841 1.43704 0 38.6123 0 0 0
134 2 -0.00346229 0 2.03224 38.6123 0 0 0
229 2 -0.00616636 1.43704 6.09672 32.5161 0 0 0
234 2 -0.00780093 0 8.12896 32.5161 0 0 0
239 1 0.0225233 1.43704 8.12896 34.5481 0 0 0
269 1 0.018685 4.31113 2.03224 32.5161 0 0 0
274 2 -0.0144264 2.87409 4.06448 32.5161 0 0 0
279 1 0.0164728 4.31113 4.06448 34.5481 0 0 0
284 2 -0.00910033 2.87409 6.09672 34.5481 0 0 0
289 2 -0.00536092 4.31113 6.09672 36.5802 0 0 0
294 2 -0.00624731 2.87409 8.12896 36.5802 0 0 0
299 1 0.0231587 4.31113 8.12896 38.6123 0 0 0
314 2 -0.009317560000000001 2.87409 0 32.5161 0 0 0
319 2 -0.00517744 4.31113 0 34.5481 0 0 0
324 1 0.0147608 2.87409 2.03224 34.5481 0 0 0
329 2 -0.00370537 4.31113 2.03224 36.5802 0 0 0
334 2 -0.00723738 2.87409 4.06448 36.5802 0 0 0
339 2 -0.000791189 4.31113 4.06448 38.6123 0 0 0
344 2 -0.00541867 2.87409 6.09672 38.6123 0 0 0
374 2 -0.00582824 2.87409 0 36.5802 0 0 0
379 2 -0.00262985 4.31113 0 38.6123 0 0 0
384 2 -0.00167637 2.87409 2.03224 38.6123 0 0 0
479 1 0.0176604 4.31113 6.09672 32.5161 0 0 0
484 2 -0.00581166 2.87409 8.12896 32.5161 0 0 0
489 2 -0.00542143 4.31113 8.12896 34.5481 0 0 0
519 2 -0.00357448 7.18501 2.03224 32.5161 0 0 0
524 1 0.0161848 5.74797 4.06448 32.5161 0 0 0
529 2 -0.0050651 7.18501 4.06448 34.5481 0 0 0
534 1 0.0204004 5.74797 6.09672 34.5481 0 0 0
539 2 -0.00334643 7.18501 6.09672 36.5802 0 0 0
544 2 -0.00540014 5.74797 8.12896 36.5802 0 0 0
549 2 -0.00650358 7.18501 8.12896 38.6123 0 0 0
564 2 -0.00117933 5.74797 0 32.5161 0 0 0
569 2 -0.000440636 7.18501 0 34.5481 0 0 0
574 2 -0.0058458 5.74797 2.03224 34.5481 0 0 0
579 2 0.00115125 7.18501 2.03224 36.5802 0 0 0
584 2 -0.00255935 5.74797 4.06448 36.5802 0 0 0
589 2 -0.000138463 7.18501 4.06448 38.6123 0 0 0
594 2 -0.00367115 5.74797 6.09672 38.6123 0 0 0
624 2 -0.000196157 5.74797 0 36.5802 0 0 0
629 2 -0.00382469 7.18501 0 38.6123 0 0 0
634 2 0.0007047620000000001 5.74797 2.03224 38.6123 0 0 0
729 2 -0.010518 7.18501 6.09672 32.5161 0 0 0
734 2 -0.00484206 5.74797 8.12896 32.5161 0 0 0
739 2 -0.00337696 7.18501 8.12896 34.5481 0 0 0
774 2 -0.0054301 8.62206 4.06448 32.5161 0 0 0
784 2 -0.0021797 8.62206 6.09672 34.5481 0 0 0
794 2 -0.00613043 8.62206 8.12896 36.5802 0 0 0
814 2 -0.00156963 8.62206 0 32.5161 0 0 0
824 2 -0.00259272 8.62206 2.03224 34.5481 0 0 0
834 2 -0.000445111 8.62206 4.06448 36.5802 0 0 0
844 1 0.0259731 8.62206 6.09672 38.6123 0 0 0
874 2 -0.00602365 8.62206 0 36.5802 0 0 0
884 2 -0.00169591 8.62206 2.03224 38.6123 0 0 0
984 2 -0.00418241 8.62206 8.12896 32.5161 0 0 0
55 2 -0.00546483 0 8.12896 40.6444 0 0 0
60 2 -0.00366406 1.43704 8.12896 42.6774 0 0 0
100 2 -0.00842481 1.43704 6.09672 40.6444 0 0 0
105 2 -0.009076829999999999 0 6.09672 42.6774 0 0 0
110 2 -0.00725788 1.43704 6.09672 44.7095 0 0 0
115 2 0.000474203 0 8.12896 44.7095 0 0 0
120 2 -0.00417547 1.43704 8.12896 46.7416 0 0 0
140 2 -0.00173547 1.43704 2.03224 40.6444 0 0 0
145 2 -0.00800124 0 4.06448 40.6444 0 0 0
150 1 0.0206191 1.43704 4.06448 42.6774 0 0 0
155 1 0.02115 0 4.06448 44.7095 0 0 0
160 2 -0.00346723 1.43704 4.06448 46.7416 0 0 0
165 2 -0.00291351 0 6.09672 46.7416 0 0 0
185 2 0.00163151 0 0 40.6444 0 0 0
190 2 0.000139237 1.43704 0 42.6774 0 0 0
195 2 -0.00558055 0 2.03224 42.6774 0 0 0
200 2 -0.00463036 1.43704 2.03224 44.7095 0 0 0
205 2 -0.00248586 0 2.03224 46.7416 0 0 0
245 2 -0.00169181 0 0 44.7095 0 0 0
250 2 -0.00122786 1.43704 0 46.7416 0 0 0
305 2 -0.0074139 2.87409 8.12896 40.6444 0 0 0
310 2 -0.0113897 4.31113 8.12896 42.6774 0 0 0
350 2 -0.00613872 4.31113 6.09672 40.6444 0 0 0
355 1 0.020765 2.87409 6.09672 42.6774 0 0 0
360 1 0.018951 4.31113 6.09672 44.7095 0 0 0
365 2 -0.008831179999999999 2.87409 8.12896 44.7095 0 0 0
370 1 0.0190431 4.31113 8.12896 46.7416 0 0 0
390 2 -0.00162299 4.31113 2.03224 40.6444 0 0 0
395 2 -0.00527893 2.87409 4.06448 40.6444 0 0 0
400 2 -0.00719373 4.31113 4.06448 42.6774 0 0 0
405 2 -0.00715941 2.87409 4.06448 44.7095 0 0 0
410 2 -0.00235593 4.31113 4.06448 46.7416 0 0 0
415 2 -0.00688041 2.87409 6.09672 46.7416 0 0 0
435 2 -0.00120256 2.87409 0 40.6444 0 0 0
440 2 -0.00408969 4.31113 0 42.6774 0 0 0
445 2 -0.00304102 2.87409 2.03224 42.6774 0 0 0
450 2 -0.00435675 4.31113 2.03224 44.7095 0 0 0
455 2 -0.00051694 2.87409 2.03224 46.7416 0 0 0
495 2 -0.00253262 2.87409 0 44.7095 0 0 0
500 2 -0.00437736 4.31113 0 46.7416 0 0 0
555 1 0.0213538 5.74797 8.12896 40.6444 0 0 0
560 2 -0.009998409999999999 7.18501 8.12896 42.6774 0 0 0
600 2 -0.00745658 7.18501 6.09672 40.6444 0 0 0
605 2 -0.0108758 5.74797 6.09672 42.6774 0 0 0
610 2 -0.0126564 7.18501 6.09672 44.7095 0 0 0
615 1 0.0140201 5.74797 8.12896 44.7095 0 0 0
620 1 0.0186921 7.18501 8.12896 46.7416 0 0 0
640 2 -0.00305205 7.18501 2.03224 40.6444 0 0 0
645 2 -0.00234315 5.74797 4.06448 40.6444 0 0 0
650 1 0.0202009 7.18501 4.06448 42.6774 0 0 0
655 2 -0.009005579999999999 5.74797 4.06448 44.7095 0 0 0
660 2 -0.00547574 7.18501 4.06448 46.7416 0 0 0
665 2 -0.00863512 5.74797 6.09672 46.7416 0 0 0
685 1 0.0264679 5.74797 0 40.6444 0 0 0
690 2 -0.00760656 7.18501 0 42.6774 0 0 0
695 2 -0.00668128 5.74797 2.03224 42.6774 0 0 0
700 1 0.0210783 7.18501 2.03224 44.7095 0 0 0
705 2 -0.0033093 5.74797 2.03224 46.7416 0 0 0
745 1 0.0234846 5.74797 0 44.7095 0 0 0
750 2 -0.00512912 7.18501 0 46.7416 0 0 0
805 2 -0.00648875 8.62206 8.12896 40.6444 0 0 0
855 1 0.0201845 8.62206 6.09672 42.6774 0 0 0
865 2 -0.0104496 8.62206 8.12896 44.7095 0 0 0
895 2 -0.00574805 8.62206 4.06448 40.6444 0 0 0
905 1 0.019111 8.62206 4.06448 44.7095 0 0 0
915 2 -0.00787092 8.62206 6.09672 46.7416 0 0 0
935 2 -0.00713749 8.62206 0 40.6444 0 0 0
945 2 -0.00682382 8.62206 2.03224 42.6774 0 0 0
955 2 -0.006145 8.62206 2.03224 46.7416 0 0 0
995 2 -0.00689485 8.62206 0 44.7095 0 0 0
5 2 0.00114301 0 0 48.7736 0 0 0
170 1 0.0245547 1.43704 6.09672 48.7736 0 0 0
175 2 -0.00769376 0 8.12896 48.7736 0 0 0
210 2 0.000144201 1.43704 2.03224 48.7736 0 0 0
215 2 -0.00207157 0 4.06448 48.7736 0 0 0
255 2 -0.00133294 2.87409 0 48.7736 0 0 0
420 2 -0.00410815 4.31113 6.09672 48.7736 0 0 0
425 2 -0.00849749 2.87409 8.12896 48.7736 0 0 0
460 2 0.000264143 4.31113 2.03224 48.7736 0 0 0
465 2 -0.00234089 2.87409 4.06448 48.7736 0 0 0
505 2 -0.00127498 5.74797 0 48.7736 0 0 0
670 2 -0.00355792 7.18501 6.09672 48.7736 0 0 0
675 2 -0.00565071 5.74797 8.12896 48.7736 0 0 0
710 2 -0.00166515 7.18501 2.03224 48.7736 0 0 0
715 2 -0.000645966 5.74797 4.06448 48.7736 0 0 0
755 2 -0.0029197 8.62206 0 48.7736 0 0 0
925 2 -0.00629001 8.62206 8.12896 48.7736 0 0 0
965 1 0.0258876 8.62206 4.06448 48.7736 0 0 0
6 2 -0.00382954 1.43704 10.1612 0 0 0 0
11 2 -0.00592238 0 12.1934 0 0 0 0
16 1 0.0208404 1.43704 12.1934 2.03208 0 0 0
21 1 0.0228257 0 14.2257 2.03208 0 0 0
26 2 -0.0109936 1.43704 14.2257 4.06416 0 0 0
31 1 0.0239963 0 16.2579 4.06416 0 0 0
36 2 -0.00652121 1.43704 16.2579 6.09717 0 0 0
41 2 -0.00596141 0 18.2902 6.09717 0 0 0
61 2 -0.00485365 0 10.1612 2.03208 0 0 0
66 2 -0.00676377 1.43704 10.1612 4.06416 0 0 0
71 2 -0.00512738 0 12.1934 4.06416 0 0 0
76 2 -0.00671785 1.43704 12.1934 6.09717 0 0 0
81 2 -0.00416389 0 14.2257 6.09717 0 0 0
121 2 -0.00252239 0 10.1612 6.09717 0 0 0
176 2 -0.00441729 1.43704 18.2902 0 0 0 0
216 2 -0.00413049 1.43704 14.2257 0 0 0 0
221 2 -0.00511729 0 16.2579 0 0 0 0
226 2 -0.00491554 1.43704 16.2579 2.03208 0 0 0
231 2 -0.00643092 0 18.2902 2.03208 0 0 0
236 2 -0.00550704 1.43704 18.2902 4.06416 0 0 0
256 2 -0.00186779 4.31113 10.1612 0 0 0 0
261 2 -0.00329366 2.87409 12.1934 0 0 0 0
266 2 -0.0070653 4.31113 12.1934 2.03208 0 0 0
271 2 -0.00741941 2.87409 14.2257 2.03208 0 0 0
276 1 0.0214053 4.31113 14.2257 4.06416 0 0 0
281 2 -0.00575011 2.87409 16.2579 4.06416 0 0 0
286 2 -0.00411208 4.31113 16.2579 6.09717 0 0 0
291 2 -0.00786944 2.87409 18.2902 6.09717 0 0 0
311 2 -0.00711493 2.87409 10.1612 2.03208 0 0 0
316 2 -0.00721265 4.31113 10.1612 4.06416 0 0 0
321 1 0.0187359 2.87409 12.1934 4.06416 0 0 0
326 2 -0.00636706 4.31113 12.1934 6.09717 0 0 0
331 1 0.0219285 2.87409 14.2257 6.09717 0 0 0
371 2 -0.00528207 2.87409 10.1612 6.09717 0 0 0
426 2 -0.00258956 4.31113 18.2902 0 0 0 0
466 2 4.11828e-05 4.31113 14.2257 0 0 0 0
471 2 -0.000442632 2.87409 16.2579 0 0 0 0
476 2 -0.000829476 4.31113 16.2579 2.03208 0 0 0
481 2 -0.00261925 2.87409 18.2902 2.03208 0 0 0
486 2 -0.00370619 4.31113 18.2902 4.06416 0 0 0
506 2 -0.00418876 7.18501 10.1612 0 0 0 0
511 2 -0.000163279 5.74797 12.1934 0 0 0 0
516 2 -0.00362865 7.18501 12.1934 2.03208 0 0 0
521 2 -0.0012554 5.74797 14.2257 2.03208 0 0 0
526 2 -0.00346359 7.18501 14.2257 4.06416 0 0 0
531 2 -0.00201428 5.74797 16.2579 4.06416 0 0 0
536 2 -0.00408103 7.18501 16.2579 6.09717 0 0 0
541 2 -0.00390213 5.74797 18.2902 6.09717 0 0 0
561 1 0.0263482 5.74797 10.1612 2.03208 0 0 0
566 2 -0.00721373 7.18501 10.1612 4.06416 0 0 0
571 2 -0.00598195 5.74797 12.1934 4.06416 0 0 0
576 2 -0.00502533 7.18501 12.1934 6.09717 0 0 0
581 2 -0.00464593 5.74797 14.2257 6.09717 0 0 0
621 2 -0.00356715 5.74797 10.1612 6.09717 0 0 0
676 2 -0.00264262 7.18501 18.2902 0 0 0 0
716 2 0.00134407 7.18501 14.2257 0 0 0 0
721 2 0.000857423 5.74797 16.2579 0 0 0 0
726 2 0.000889605 7.18501 16.2579 2.03208 0 0 0
731 2 -0.00028219 5.74797 18.2902 2.03208 0 0 0
736 2 -0.00297636 7.18501 18.2902 4.06416 0 0 0
761 2 -0.00688187 8.62206 12.1934 0 0 0 0
771 2 -0.00217285 8.62206 14.2257 2.03208 0 0 0
781 2 -0.00371457 8.62206 16.2579 4.06416 0 0 0
791 1 0.0225504 8.62206 18.2902 6.09717 0 0 0
811 2 -0.0106835 8.62206 10.1612 2.03208 0 0 0
821 2 -0.00954146 8.62206 12.1934 4.06416 0 0 0
831 1 0.0249647 8.62206 14.2257 6.09717 0 0 0
871 1 0.0209207 8.62206 10.1612 6.09717 0 0 0
971 2 -0.00191035 8.62206 16.2579 0 0 0 0
981 2 -0.00332544 8.62206 18.2902 2.03208 0 0 0
46 1 0.0240571 1.43704 18.2902 8.12925 0 0 0
52 2 -0.00358113 0 18.2902 10.1613 0 0 0
57 2 -0.00496971 1.43704 18.2902 12.1934 0 0 0
86 2 -0.00301937 1.43704 14.2257 8.12925 0 0 0
91 2 -0.00285267 0 16.2579 8.12925 0 0 0
97 2 -0.000744973 1.43704 16.2579 10.1613 0 0 0
102 2 -0.00575927 0 16.2579 12.1934 0 0 0
107 2 -0.00818748 1.43704 16.2579 14.2255 0 0 0
112 1 0.0139963 0 18.2902 14.2255 0 0 0
126 1 0.0262109 1.43704 10.1612 8.12925 0 0 0
131 2 -0.00531663 0 12.1934 8.12925 0 0 0
137 2 -0.00211641 1.43704 12.1934 10.1613 0 0 0
142 2 -0.00269714 0 14.2257 10.1613 0 0 0
147 2 -0.00259082 1.43704 14.2257 12.1934 0 0 0
152 1 0.0195064 0 14.2257 14.2255 0 0 0
182 2 -0.00372993 0 10.1612 10.1613 0 0 0
187 2 0.000279999 1.43704 10.1612 12.1934 0 0 0
192 2 -0.00308909 0 12.1934 12.1934 0 0 0
197 2 -0.00255762 1.43704 12.1934 14.2255 0 0 0
242 2 0.000508816 0 10.1612 14.2255 0 0 0
296 2 -0.00460689 4.31113 18.2902 8.12925 0 0 0
302 2 -0.00288059 2.87409 18.2902 10.1613 0 0 0
307 2 -0.000267346 4.31113 18.2902 12.1934 0 0 0
336 2 -0.0015542 4.31113 14.2257 8.12925 0 0 0
341 2 -0.00328745 2.87409 16.2579 8.12925 0 0 0
347 2 0.00121588 4.31113 16.2579 10.1613 0 0 0
352 2 0.000676097 2.87409 16.2579 12.1934 0 0 0
357 2 0.00173312 4.31113 16.2579 14.2255 0 0 0
362 2 -0.00402165 2.87409 18.2902 14.2255 0 0 0
376 2 -0.00105499 4.31113 10.1612 8.12925 0 0 0
381 2 -0.00340777 2.87409 12.1934 8.12925 0 0 0
387 2 0.000711125 4.31113 12.1934 10.1613 0 0 0
392 2 0.000565378 2.87409 14.2257 10.1613 0 0 0
397 2 0.00138204 4.31113 14.2257 12.1934 0 0 0
402 2 -0.00100082 2.87409 14.2257 14.2255 0 0 0
432 2 -0.00209523 2.87409 10.1612 10.1613 0 0 0
437 2 -0.00218112 4.31113 10.1612 12.1934 0 0 0
442 2 0.000126543 2.87409 12.1934 12.1934 0 0 0
447 2 0.000557147 4.31113 12.1934 14.2255 0 0 0
492 2 -0.000211663 2.87409 10.1612 14.2255 0 0 0
546 2 -0.00436955 7.18501 18.2902 8.12925 0 0 0
552 2 -0.000543787 5.74797 18.2902 10.1613 0 0 0
557 2 -0.00461674 7.18501 18.2902 12.1934 0 0 0
586 2 -0.00176642 7.18501 14.2257 8.12925 0 0 0
591 2 -0.000520972 5.74797 16.2579 8.12925 0 0 0
597 2 -0.0011468 7.18501 16.2579 10.1613 0 0 0
602 2 0.00174338 5.74797 16.2579 12.1934 0 0 0
607 2 0.000272903 7.18501 16.2579 14.2255 0 0 0
612 2 -0.00115202 5.74797 18.2902 14.2255 0 0 0
626 2 -0.00217903 7.18501 10.1612 8.12925 0 0 0
631 2 8.43406e-05 5.74797 12.1934 8.12925 0 0 0
637 2 0.00022406 7.18501 12.1934 10.1613 0 0 0
642 2 0.00116368 5.74797 14.2257 10.1613 0 0 0
647 2 0.000509855 7.18501 14.2257 12.1934 0 0 0
652 2 0.00171618 5.74797 14.2257 14.2255 0 0 0
682 2 -0.000892536 5.74797 10.1612 10.1613 0 0 0
687 2 -0.00394537 7.18501 10.1612 12.1934 0 0 0
692 2 0.000325775 5.74797 12.1934 12.1934 0 0 0
697 2 -0.00172705 7.18501 12.1934 14.2255 0 0 0
742 2 -0.00367625 5.74797 10.1612 14.2255 0 0 0
802 2 -0.00843845 8.62206 18.2902 10.1613 0 0 0
841 2 -0.00645337 8.62206 16.2579 8.12925 0 0 0
852 2 -0.00410151 8.62206 16.2579 12.1934 0 0 0
862 2 -0.009984420000000001 8.62206 18.2902 14.2255 0 0 0
881 2 -0.00322513 8.62206 12.1934 8.12925 0 0 0
892 2 -0.00338313 8.62206 14.2257 10.1613 0 0 0
902 2 -0.000217619 8.62206 14.2257 14.2255 0 0 0
932 2 -0.000571078 8.62206 10.1612 10.1613 0 0 0
942 2 -0.00213475 8.62206 12.1934 12.1934 0 0 0
992 1 0.0244534 8.62206 10.1612 14.2255 0 0 0
2 2 -0.00693815 0 10.1612 18.2906 0 0 0
8 2 -0.00645214 1.43704 10.1612 20.3227 0 0 0
13 2 -0.00350527 0 12.1934 20.3227 0 0 0
18 2 -0.00131298 1.43704 12.1934 22.3547 0 0 0
23 2 -0.00567996 0 14.2257 22.3547 0 0 0
63 2 -0.00191015 0 10.1612 22.3547 0 0 0
117 2 -0.0113488 1.43704 18.2902 16.2576 0 0 0
157 2 -0.00591894 1.43704 14.2257 16.2576 0 0 0
162 1 0.0167737 0 16.2579 16.2576 0 0 0
167 2 -0.00179955 1.43704 16.2579 18.2906 0 0 0
172 2 -0.00783383 0 18.2902 18.2906 0 0 0
178 2 -0.00493698 1.43704 18.2902 20.3227 0 0 0
202 2 -0.00831727 0 12.1934 16.2576 0 0 0
207 2 -0.00432824 1.43704 12.1934 18.2906 0 0 0
212 2 -0.00586109 0 14.2257 18.2906 0 0 0
218 2 -0.00146129 1.43704 14.2257 20.3227 0 0 0
223 2 -0.00299352 0 16.2579 20.3227 0 0 0
228 2 -0.00609588 1.43704 16.2579 22.3547 0 0 0
233 2 -0.008661169999999999 0 18.2902 22.3547 0 0 0
247 2 -0.00220524 1.43704 10.1612 16.2576 0 0 0
252 1 0.0233977 2.87409 10.1612 18.2906 0 0 0
258 1 0.0242465 4.31113 10.1612 20.3227 0 0 0
263 2 -0.00336637 2.87409 12.1934 20.3227 0 0 0
268 2 -0.00238596 4.31113 12.1934 22.3547 0 0 0
273 1 0.0269801 2.87409 14.2257 22.3547 0 0 0
313 2 -0.00356823 2.87409 10.1612 22.3547 0 0 0
367 2 -0.00213862 4.31113 18.2902 16.2576 0 0 0
407 2 0.00112247 4.31113 14.2257 16.2576 0 0 0
412 2 -0.0009840999999999999 2.87409 16.2579 16.2576 0 0 0
417 2 -0.00209857 4.31113 16.2579 18.2906 0 0 0
422 2 -0.00596065 2.87409 18.2902 18.2906 0 0 0
428 1 0.0207346 4.31113 18.2902 20.3227 0 0 0
452 2 -0.00151297 2.87409 12.1934 16.2576 0 0 0
457 2 -0.00247111 4.31113 12.1934 18.2906 0 0 0
462 2 0.0003433 2.87409 14.2257 18.2906 0 0 0
468 2 -0.00323005 4.31113 14.2257 20.3227 0 0 0
473 2 -0.00271868 2.87409 16.2579 20.3227 0 0 0
478 2 -0.00830441 4.31113 16.2579 22.3547 0 0 0
483 2 -0.0075482 2.87409 18.2902 22.3547 0 0 0
497 2 -0.00402632 4.31113 10.1612 16.2576 0 0 0
502 2 -0.00484536 5.74797 10.1612 18.2906 0 0 0
508 2 -0.00295453 7.18501 10.1612 20.3227 0 0 0
513 2 -0.00383289 5.74797 12.1934 20.3227 0 0 0
518 2 -0.00450967 7.18501 12.1934 22.3547 0 0 0
523 2 -0.00725479 5.74797 14.2257 22.3547 0 0 0
563 2 -0.00175436 5.74797 10.1612 22.3547 0 0 0
617 2 -0.00674309 7.18501 18.2902 16.2576 0 0 0
657 2 -0.00262721 7.18501 14.2257 16.2576 0 0 0
662 2 -0.00132285 5.74797 16.2579 16.2576 0 0 0
667 1 0.0159824 7.18501 16.2579 18.2906 0 0 0
672 2 -0.00856701 5.74797 18.2902 18.2906 0 0 0
678 1 0.0144932 7.18501 18.2902 20.3227 0 0 0
702 2 -0.000347373 5.74797 12.1934 16.2576 0 0 0
707 2 -0.00433555 7.18501 12.1934 18.2906 0 0 0
712 2 -0.00497175 5.74797 14.2257 18.2906 0 0 0
718 1 0.0159774 7.18501 14.2257 20.3227 0 0 0
723 2 -0.0139133 5.74797 16.2579 20.3227 0 0 0
728 1 0.0132051 7.18501 16.2579 22.3547 0 0 0
733 1 0.0173417 5.74797 18.2902 22.3547 0 0 0
747 2 -0.00486034 7.18501 10.1612 16.2576 0 0 0
752 2 -0.00520556 8.62206 10.1612 18.2906 0 0 0
763 2 -0.00721412 8.62206 12.1934 20.3227 0 0 0
773 2 -0.0183763 8.62206 14.2257 22.3547 0 0 0
813 2 -0.00168873 8.62206 10.1612 22.3547 0 0 0
912 2 -0.00735398 8.62206 16.2579 16.2576 0 0 0
922 1 0.0169788 8.62206 18.2902 18.2906 0 0 0
952 2 -0.0034722 8.62206 12.1934 16.2576 0 0 0
962 1 0.0160293 8.62206 14.2257 18.2906 0 0 0
973 1 0.00634705 8.62206 16.2579 20.3227 0 0 0
983 2 -0.0145196 8.62206 18.2902 22.3547 0 0 0
28 2 -0.00589001 1.43704 14.2257 24.3868 0 0 0
33 1 0.019892 0 16.2579 24.3868 0 0 0
38 2 -0.00650116 1.43704 16.2579 26.4189 0 0 0
43 1 0.0256806 0 18.2902 26.4189 0 0 0