ITEM: TIMESTEP
0
ITEM: NUMBER OF ATOMS
1946
ITEM: BOX BOUNDS pp pp ff
0.0000000000000000e+00 2.0118200000000002e+01
0.0000000000000000e+00 2.0322399999999998e+01
0.0000000000000000e+00 9.3773799999999994e+01
ITEM: ATOMS id type q x y z
1 2 0.0122431 0 0 8.12925
2 2 0.0117613 0 10.1612 18.2906
3 2 0.0146544 0 0 28.451
4 2 0.01328 0 10.1612 38.6123
5 2 0.0204594 0 0 48.7736
6 2 0.0194003 1.43704 10.1612 0
7 2 0.00948238 1.43704 0 10.1613
8 2 0.0108538 1.43704 10.1612 20.3227
9 2 0.0154843 1.43704 0 30.484
10 2 0.0165529 1.43704 10.1612 40.6444
11 2 0.0146049 0 12.1934 0
12 2 0.0168193 0 2.03224 10.1613
13 2 0.0167362 0 12.1934 20.3227
14 2 0.00844114 0 2.03224 30.484
15 2 0.0109038 0 12.1934 40.6444
16 1 0.0310322 1.43704 12.1934 2.03208
17 2 0.0114732 1.43704 2.03224 12.1934
18 2 0.0148273 1.43704 12.1934 22.3547
19 1 0.0269484 1.43704 2.03224 32.5161
20 2 0.0140002 1.43704 12.1934 42.6774
21 1 0.0322279 0 14.2257 2.03208
22 2 0.0119912 0 4.06448 12.1934
23 2 0.0113155 0 14.2257 22.3547
24 1 0.0334613 0 4.06448 32.5161
25 2 0.0139848 0 14.2257 42.6774
26 2 0.00431231 1.43704 14.2257 4.06416
27 1 0.0300899 1.43704 4.06448 14.2255
28 2 0.00895835 1.43704 14.2257 24.3868
29 2 0.0123085 1.43704 4.06448 34.5481
30 2 0.0125264 1.43704 14.2257 44.7095
31 1 0.0372453 0 16.2579 4.06416
32 2 0.0140027 0 6.09672 14.2255
33 1 0.0339819 0 16.2579 24.3868
34 2 0.00971674 0 6.09672 34.5481
35 2 0.0139381 0 16.2579 44.7095
36 2 0.0109893 1.43704 16.2579 6.09717
37 2 0.0136563 1.43704 6.09672 16.2576
38 2 0.00949631 1.43704 16.2579 26.4189
39 2 0.0137895 1.43704 6.09672 36.5802
40 2 0.00829268 1.43704 16.2579 46.7416
41 2 0.0138433 0 18.2902 6.09717
42 2 0.0182763 0 8.12896 16.2576
43 1 0.0361285 0 18.2902 26.4189
44 2 0.00610027 0 8.12896 36.5802
45 2 0.0148428 0 18.2902 46.7416
46 1 0.0350705 1.43704 18.2902 8.12925
47 2 0.00922412 1.43704 8.12896 18.2906
48 2 0.0144682 1.43704 18.2902 28.451
49 2 0.0150828 1.43704 8.12896 38.6123
50 2 0.0185036 1.43704 18.2902 48.7736
51 2 0.018135 0 8.12896 0
52 2 0.0127923 0 18.2902 10.1613
53 1 0.038217 0 8.12896 20.3227
54 2 0.01701 0 18.2902 30.484
55 2 0.013666 0 8.12896 40.6444
56 2 0.00873027 1.43704 8.12896 2.03208
57 2 0.0140996 1.43704 18.2902 12.1934
58 2 0.0109267 1.43704 8.12896 22.3547
59 2 0.0108262 1.43704 18.2902 32.5161
60 2 0.0175863 1.43704 8.12896 42.6774
61 2 0.0119819 0 10.1612 2.03208
62 2 0.010548 0 0 12.1934
63 2 0.0167523 0 10.1612 22.3547
64 1 0.0309646 0 0 32.5161
65 2 0.016652 0 10.1612 42.6774
66 2 0.0120009 1.43704 10.1612 4.06416
67 2 0.00496407 1.43704 0 14.2255
68 2 0.0140473 1.43704 10.1612 24.3868
69 1 0.0291224 1.43704 0 34.5481
70 2 0.0173329 1.43704 10.1612 44.7095
71 2 0.0138293 0 12.1934 4.06416
72 1 0.0283929 0 2.03224 14.2255
73 2 0.019063 0 12.1934 24.3868
74 1 0.0231605 0 2.03224 34.5481
75 2 0.0170424 0 12.1934 44.7095
76 2 0.0116667 1.43704 12.1934 6.09717
77 1 0.0275137 1.43704 2.03224 16.2576
78 2 0.0117454 1.43704 12.1934 26.4189
79 2 0.0111002 1.43704 2.03224 36.5802
80 2 0.0139775 1.43704 12.1934 46.7416
81 2 0.0169049 0 14.2257 6.09717
82 2 0.0102653 0 4.06448 16.2576
83 2 0.0164496 0 14.2257 26.4189
84 2 0.00960052 0 4.06448 36.5802
85 1 0.0329699 0 14.2257 46.7416
86 2 0.0154395 1.43704 14.2257 8.12925
87 2 0.0122399 1.43704 4.06448 18.2906
88 2 0.00996374 1.43704 14.2257 28.451
89 1 0.0351964 1.43704 4.06448 38.6123
90 2 0.0193218 1.43704 14.2257 48.7736
91 2 0.0150051 0 16.2579 8.12925
92 2 0.0147448 0 6.09672 18.2906
93 2 0.0160012 0 16.2579 28.451
94 1 0.0298558 0 6.09672 38.6123
95 2 0.0183752 0 16.2579 48.7736
96 2 0.0165072 1.43704 6.09672 0
97 2 0.0153825 1.43704 16.2579 10.1613
98 2 0.00903241 1.43704 6.09672 20.3227
99 2 0.0119799 1.43704 16.2579 30.484
100 2 0.0101808 1.43704 6.09672 40.6444
101 1 0.0339994 0 6.09672 2.03208
102 2 0.0131959 0 16.2579 12.1934
103 2 0.014685 0 6.09672 22.3547
104 2 0.0127654 0 16.2579 32.5161
105 2 0.00941077 0 6.09672 42.6774
106 2 0.00815998 1.43704 6.09672 4.06416
107 2 0.00904204 1.43704 16.2579 14.2255
108 1 0.0340862 1.43704 6.09672 24.3868
109 1 0.034711 1.43704 16.2579 34.5481
110 2 0.0111468 1.43704 6.09672 44.7095
111 2 0.0162891 0 8.12896 4.06416
112 1 0.0308056 0 18.2902 14.2255
113 2 0.0124205 0 8.12896 24.3868
114 2 0.010119 0 18.2902 34.5481
115 2 0.018602 0 8.12896 44.7095
116 2 0.00944208 1.43704 8.12896 6.09717
117 2 0.00725673 1.43704 18.2902 16.2576
118 2 0.0134208 1.43704 8.12896 26.4189
119 2 0.0134198 1.43704 18.2902 36.5802
120 2 0.0139643 1.43704 8.12896 46.7416
121 2 0.0158569 0 10.1612 6.09717
122 1 0.0233752 0 0 16.2576
123 2 0.0176923 0 10.1612 26.4189
124 2 0.0104459 0 0 36.5802
125 2 0.0109532 0 10.1612 46.7416
126 1 0.0370965 1.43704 10.1612 8.12925
127 1 0.030155 1.43704 0 18.2906
128 2 0.0152144 1.43704 10.1612 28.451
129 2 0.0151093 1.43704 0 38.6123
130 1 0.0405768 1.43704 10.1612 48.7736
131 2 0.0102598 0 12.1934 8.12925
132 2 0.0115842 0 2.03224 18.2906
133 1 0.0301818 0 12.1934 28.451
134 2 0.0124053 0 2.03224 38.6123
135 2 0.0111203 0 12.1934 48.7736
136 2 0.0194945 1.43704 2.03224 0
137 2 0.0139441 1.43704 12.1934 10.1613
138 2 0.00944602 1.43704 2.03224 20.3227
139 1 0.0297752 1.43704 12.1934 30.484
140 2 0.0148952 1.43704 2.03224 40.6444
141 2 0.0208315 0 4.06448 0
142 2 0.0150784 0 14.2257 10.1613
143 2 0.0177329 0 4.06448 20.3227
144 1 0.0320317 0 14.2257 30.484
145 2 0.00987626 0 4.06448 40.6444
146 2 0.00958075 1.43704 4.06448 2.03208
147 2 0.0145188 1.43704 14.2257 12.1934
148 2 0.0107471 1.43704 4.06448 22.3547
149 2 0.012395 1.43704 14.2257 32.5161
150 1 0.0326695 1.43704 4.06448 42.6774
151 2 0.016142 0 4.06448 4.06416
152 1 0.03185 0 14.2257 14.2255
153 2 0.0150481 0 4.06448 24.3868
154 2 0.0125735 0 14.2257 34.5481
155 1 0.0328082 0 4.06448 44.7095
156 2 0.0074784 1.43704 4.06448 6.09717
157 2 0.0115181 1.43704 14.2257 16.2576
158 2 0.0118798 1.43704 4.06448 26.4189
159 2 0.016114 1.43704 14.2257 36.5802
160 2 0.0129336 1.43704 4.06448 46.7416
161 1 0.0312758 0 6.09672 6.09717
162 1 0.0275111 0 16.2579 16.2576
163 2 0.0145419 0 6.09672 26.4189
164 2 0.0144281 0 16.2579 36.5802
165 2 0.0123937 0 6.09672 46.7416
166 1 0.0301926 1.43704 6.09672 8.12925
167 2 0.0162312 1.43704 16.2579 18.2906
168 2 0.0131248 1.43704 6.09672 28.451
169 2 0.0108145 1.43704 16.2579 38.6123
170 1 0.0408266 1.43704 6.09672 48.7736
171 2 0.0131459 0 8.12896 8.12925
172 2 0.0127177 0 18.2902 18.2906
173 2 0.0140039 0 8.12896 28.451
174 2 0.0167982 0 18.2902 38.6123
175 2 0.012588 0 8.12896 48.7736
176 2 0.0174165 1.43704 18.2902 0
177 2 0.0113868 1.43704 8.12896 10.1613
178 2 0.0139102 1.43704 18.2902 20.3227
179 2 0.0193809 1.43704 8.12896 30.484
180 2 0.015102 1.43704 18.2902 40.6444
181 2 0.0145349 0 0 0
182 2 0.012147 0 10.1612 10.1613
183 2 0.0117494 0 0 20.3227
184 2 0.00734491 0 10.1612 30.484
185 2 0.0163576 0 0 40.6444
186 2 0.00986843 1.43704 0 2.03208
187 2 0.0175358 1.43704 10.1612 12.1934
188 2 0.0122894 1.43704 0 22.3547
189 1 0.036196 1.43704 10.1612 32.5161
190 2 0.0174764 1.43704 0 42.6774
191 2 0.0151656 0 2.03224 2.03208
192 2 0.0133845 0 12.1934 12.1934
193 2 0.0146969 0 2.03224 22.3547
194 2 0.0044012 0 12.1934 32.5161
195 2 0.0104478 0 2.03224 42.6774
196 2 0.0141178 1.43704 2.03224 4.06416
197 2 0.0142425 1.43704 12.1934 14.2255
198 2 0.0125852 1.43704 2.03224 24.3868
199 2 0.0167404 1.43704 12.1934 34.5481
200 2 0.0122334 1.43704 2.03224 44.7095
201 2 0.0143905 0 2.03224 6.09717
202 2 0.0108865 0 12.1934 16.2576
203 2 0.0144658 0 2.03224 26.4189
204 2 0.00921854 0 12.1934 36.5802
205 2 0.0115107 0 2.03224 46.7416
206 2 0.0118479 1.43704 2.03224 8.12925
207 2 0.0143956 1.43704 12.1934 18.2906
208 2 0.0116618 1.43704 2.03224 28.451
209 2 0.00974644 1.43704 12.1934 38.6123
210 2 0.0212283 1.43704 2.03224 48.7736
211 1 0.0327469 0 4.06448 8.12925
212 2 0.0120788 0 14.2257 18.2906
213 2 0.0106876 0 4.06448 28.451
214 2 0.012659 0 14.2257 38.6123
215 2 0.018033 0 4.06448 48.7736
216 2 0.0179812 1.43704 14.2257 0
217 2 0.00859644 1.43704 4.06448 10.1613
218 2 0.0143327 1.43704 14.2257 20.3227
219 2 0.0130916 1.43704 4.06448 30.484
220 1 0.0332203 1.43704 14.2257 40.6444
221 2 0.0181522 0 16.2579 0
222 2 0.0116028 0 6.09672 10.1613
223 2 0.0172061 0 16.2579 20.3227
224 2 0.0114667 0 6.09672 30.484
225 2 0.0119907 0 16.2579 40.6444
226 2 0.0117616 1.43704 16.2579 2.03208
227 1 0.0310067 1.43704 6.09672 12.1934
228 2 0.0123009 1.43704 16.2579 22.3547
229 2 0.0158313 1.43704 6.09672 32.5161
230 2 0.0137252 1.43704 16.2579 42.6774
231 2 0.0112261 0 18.2902 2.03208
232 2 0.0142244 0 8.12896 12.1934
233 2 0.0124923 0 18.2902 22.3547
234 2 0.00731196 0 8.12896 32.5161
235 2 0.0143797 0 18.2902 42.6774
236 2 0.0142828 1.43704 18.2902 4.06416
237 2 0.0154554 1.43704 8.12896 14.2255
238 2 0.0123422 1.43704 18.2902 24.3868
239 1 0.0354637 1.43704 8.12896 34.5481
240 2 0.0114643 1.43704 18.2902 44.7095
241 2 0.014392 0 0 4.06416
242 2 0.0173366 0 10.1612 14.2255
243 2 0.0163385 0 0 24.3868
244 2 0.00106928 0 10.1612 34.5481
245 2 0.0152356 0 0 44.7095
246 2 0.00730088 1.43704 0 6.09717
247 2 0.0150505 1.43704 10.1612 16.2576
248 2 0.0116807 1.43704 0 26.4189
249 1 0.0381584 1.43704 10.1612 36.5802
250 2 0.0125525 1.43704 0 46.7416
251 1 0.0320872 2.87409 0 8.12925
252 1 0.0345612 2.87409 10.1612 18.2906
253 2 0.0164769 2.87409 0 28.451
254 2 0.00910516 2.87409 10.1612 38.6123
255 2 0.0196308 2.87409 0 48.7736
256 2 0.0189866 4.31113 10.1612 0
257 2 0.0106544 4.31113 0 10.1613
258 1 0.0340237 4.31113 10.1612 20.3227
259 2 0.016754 4.31113 0 30.484
260 1 0.0314051 4.31113 10.1612 40.6444
261 2 0.0202142 2.87409 12.1934 0
262 2 0.0164628 2.87409 2.03224 10.1613
263 2 0.0113572 2.87409 12.1934 20.3227
264 2 0.0139052 2.87409 2.03224 30.484
265 1 0.0260624 2.87409 12.1934 40.6444
266 2 0.00783195 4.31113 12.1934 2.03208
267 2 0.00880873 4.31113 2.03224 12.1934
268 2 0.0129893 4.31113 12.1934 22.3547
269 1 0.0309413 4.31113 2.03224 32.5161
270 1 0.0318279 4.31113 12.1934 42.6774
271 2 0.00924887 2.87409 14.2257 2.03208
272 1 0.031009 2.87409 4.06448 12.1934
273 1 0.0371337 2.87409 14.2257 22.3547
274 2 0.00613583 2.87409 4.06448 32.5161
275 2 0.00556711 2.87409 14.2257 42.6774
276 1 0.0319691 4.31113 14.2257 4.06416
277 2 0.0132983 4.31113 4.06448 14.2255
278 2 0.0128551 4.31113 14.2257 24.3868
279 1 0.0280305 4.31113 4.06448 34.5481
280 1 0.0350955 4.31113 14.2257 44.7095
281 2 0.0141403 2.87409 16.2579 4.06416
282 2 0.0127034 2.87409 6.09672 14.2255
283 2 0.0122248 2.87409 16.2579 24.3868
284 2 0.0107252 2.87409 6.09672 34.5481
285 1 0.033945 2.87409 16.2579 44.7095
286 2 0.0143761 4.31113 16.2579 6.09717
287 2 0.0130758 4.31113 6.09672 16.2576
288 2 0.0109726 4.31113 16.2579 26.4189
289 2 0.0143676 4.31113 6.09672 36.5802
290 2 0.00589408 4.31113 16.2579 46.7416
291 2 0.0106011 2.87409 18.2902 6.09717
292 2 0.0136115 2.87409 8.12896 16.2576
293 2 0.0144645 2.87409 18.2902 26.4189
294 2 0.0104249 2.87409 8.12896 36.5802
295 1 0.0349308 2.87409 18.2902 46.7416
296 2 0.0123416 4.31113 18.2902 8.12925
297 2 0.00872664 4.31113 8.12896 18.2906
298 2 0.0130416 4.31113 18.2902 28.451
299 1 0.0339611 4.31113 8.12896 38.6123
300 2 0.0161155 4.31113 18.2902 48.7736
301 2 0.0223332 2.87409 8.12896 0
302 2 0.0116828 2.87409 18.2902 10.1613
303 2 0.0126926 2.87409 8.12896 20.3227
304 2 0.0141277 2.87409 18.2902 30.484
305 2 0.0107093 2.87409 8.12896 40.6444
306 2 0.00837423 4.31113 8.12896 2.03208
307 2 0.0134631 4.31113 18.2902 12.1934
308 2 0.0140764 4.31113 8.12896 22.3547
309 2 0.0143432 4.31113 18.2902 32.5161
310 2 0.0086005 4.31113 8.12896 42.6774
311 2 0.0104963 2.87409 10.1612 2.03208
312 1 0.0391731 2.87409 0 12.1934
313 2 0.0139149 2.87409 10.1612 22.3547
314 2 0.00859206 2.87409 0 32.5161
315 2 0.00963134 2.87409 10.1612 42.6774
316 2 0.0107845 4.31113 10.1612 4.06416
317 2 0.0121576 4.31113 0 14.2255
318 2 0.0155972 4.31113 10.1612 24.3868
319 2 0.0132674 4.31113 0 34.5481
320 1 0.0342012 4.31113 10.1612 44.7095
321 1 0.0324191 2.87409 12.1934 4.06416
322 2 0.0099175 2.87409 2.03224 14.2255
323 2 0.0143326 2.87409 12.1934 24.3868
324 1 0.0275906 2.87409 2.03224 34.5481
325 2 0.0109219 2.87409 12.1934 44.7095
326 2 0.0114309 4.31113 12.1934 6.09717
327 2 0.0126738 4.31113 2.03224 16.2576
328 2 0.0138412 4.31113 12.1934 26.4189
329 2 0.0146486 4.31113 2.03224 36.5802
330 2 0.0134845 4.31113 12.1934 46.7416
331 1 0.0331614 2.87409 14.2257 6.09717
332 2 0.0141101 2.87409 4.06448 16.2576
333 1 0.038475 2.87409 14.2257 26.4189
334 2 0.0126187 2.87409 4.06448 36.5802
335 2 0.0123071 2.87409 14.2257 46.7416
336 2 0.0141128 4.31113 14.2257 8.12925
337 2 0.00786121 4.31113 4.06448 18.2906
338 2 0.0103622 4.31113 14.2257 28.451
339 2 0.0166869 4.31113 4.06448 38.6123
340 2 0.0169309 4.31113 14.2257 48.7736
341 2 0.0131143 2.87409 16.2579 8.12925
342 1 0.037297 2.87409 6.09672 18.2906
343 2 0.0140725 2.87409 16.2579 28.451
344 2 0.0118913 2.87409 6.09672 38.6123
345 2 0.0205559 2.87409 16.2579 48.7736
346 2 0.017141 4.31113 6.09672 0
347 2 0.0159432 4.31113 16.2579 10.1613
348 2 0.0103912 4.31113 6.09672 20.3227
349 1 0.031816 4.31113 16.2579 30.484
350 2 0.013083 4.31113 6.09672 40.6444
351 1 0.0301789 2.87409 6.09672 2.03208
352 2 0.0175479 2.87409 16.2579 12.1934
353 2 0.0139908 2.87409 6.09672 22.3547
354 1 0.0319458 2.87409 16.2579 32.5161
355 1 0.0330755 2.87409 6.09672 42.6774
356 2 0.0118013 4.31113 6.09672 4.06416
357 2 0.0160619 4.31113 16.2579 14.2255
358 2 0.0142685 4.31113 6.09672 24.3868
359 2 0.0109117 4.31113 16.2579 34.5481
360 1 0.0336567 4.31113 6.09672 44.7095
361 1 0.037701 2.87409 8.12896 4.06416
362 2 0.0147158 2.87409 18.2902 14.2255
363 1 0.032872 2.87409 8.12896 24.3868
364 2 0.0129083 2.87409 18.2902 34.5481
365 2 0.0081084 2.87409 8.12896 44.7095
366 2 0.0138831 4.31113 8.12896 6.09717
367 2 0.0163816 4.31113 18.2902 16.2576
368 2 0.0128879 4.31113 8.12896 26.4189
369 2 0.0140763 4.31113 18.2902 36.5802
370 1 0.0311602 4.31113 8.12896 46.7416
371 2 0.0129359 2.87409 10.1612 6.09717
372 1 0.0335152 2.87409 0 16.2576
373 2 0.0163015 2.87409 10.1612 26.4189
374 2 0.0136897 2.87409 0 36.5802
375 2 0.00943945 2.87409 10.1612 46.7416
376 2 0.016087 4.31113 10.1612 8.12925
377 2 0.00996138 4.31113 0 18.2906
378 2 0.0176242 4.31113 10.1612 28.451
379 2 0.0113806 4.31113 0 38.6123
380 2 0.0179105 4.31113 10.1612 48.7736
381 2 0.0128025 2.87409 12.1934 8.12925
382 2 0.0106639 2.87409 2.03224 18.2906
383 2 0.0102899 2.87409 12.1934 28.451
384 2 0.0153634 2.87409 2.03224 38.6123
385 2 0.0179149 2.87409 12.1934 48.7736
386 2 0.0141019 4.31113 2.03224 0
387 2 0.0159804 4.31113 12.1934 10.1613
388 2 0.00568325 4.31113 2.03224 20.3227
389 1 0.0369147 4.31113 12.1934 30.484
390 2 0.0148365 4.31113 2.03224 40.6444
391 2 0.0195633 2.87409 4.06448 0
392 2 0.0165578 2.87409 14.2257 10.1613
393 1 0.0349838 2.87409 4.06448 20.3227
394 2 0.00918934 2.87409 14.2257 30.484
395 2 0.010963 2.87409 4.06448 40.6444
396 1 0.0312222 4.31113 4.06448 2.03208
397 2 0.0150068 4.31113 14.2257 12.1934
398 2 0.0101546 4.31113 4.06448 22.3547
399 2 0.010929 4.31113 14.2257 32.5161
400 2 0.0122382 4.31113 4.06448 42.6774
401 2 0.015533 2.87409 4.06448 4.06416
402 2 0.0154929 2.87409 14.2257 14.2255
403 2 0.0130061 2.87409 4.06448 24.3868
404 2 0.0126722 2.87409 14.2257 34.5481
405 2 0.0101545 2.87409 4.06448 44.7095
406 2 0.014547 4.31113 4.06448 6.09717
407 2 0.0161799 4.31113 14.2257 16.2576
408 2 0.0111374 4.31113 4.06448 26.4189
409 2 0.0116363 4.31113 14.2257 36.5802
410 2 0.0164719 4.31113 4.06448 46.7416
411 2 0.0147867 2.87409 6.09672 6.09717
412 2 0.0171587 2.87409 16.2579 16.2576
413 2 0.0103009 2.87409 6.09672 26.4189
414 2 0.010503 2.87409 16.2579 36.5802
415 2 0.00906046 2.87409 6.09672 46.7416
416 2 0.0125248 4.31113 6.09672 8.12925
417 2 0.0161556 4.31113 16.2579 18.2906
418 1 0.0314207 4.31113 6.09672 28.451
419 1 0.0308782 4.31113 16.2579 38.6123
420 2 0.0199146 4.31113 6.09672 48.7736
421 2 0.011521 2.87409 8.12896 8.12925
422 2 0.0102196 2.87409 18.2902 18.2906
423 2 0.0157217 2.87409 8.12896 28.451
424 1 0.0342826 2.87409 18.2902 38.6123
425 2 0.0138742 2.87409 8.12896 48.7736
426 2 0.017995 4.31113 18.2902 0
427 2 0.0130838 4.31113 8.12896 10.1613
428 1 0.0330591 4.31113 18.2902 20.3227
429 2 0.0140076 4.31113 8.12896 30.484
430 2 0.0113342 4.31113 18.2902 40.6444
431 1 0.0413001 2.87409 0 0
432 2 0.0144587 2.87409 10.1612 10.1613
433 1 0.0326419 2.87409 0 20.3227
434 2 0.00874891 2.87409 10.1612 30.484
435 2 0.0136754 2.87409 0 40.6444
436 2 0.00855856 4.31113 0 2.03208
437 2 0.0135283 4.31113 10.1612 12.1934
438 2 0.00836733 4.31113 0 22.3547
439 2 0.0160372 4.31113 10.1612 32.5161
440 2 0.0115488 4.31113 0 42.6774
441 2 0.0110441 2.87409 2.03224 2.03208
442 2 0.0161591 2.87409 12.1934 12.1934
443 1 0.0358232 2.87409 2.03224 22.3547
444 2 0.0111563 2.87409 12.1934 32.5161
445 2 0.0163066 2.87409 2.03224 42.6774
446 2 0.0076496 4.31113 2.03224 4.06416
447 2 0.0162326 4.31113 12.1934 14.2255
448 2 0.0123218 4.31113 2.03224 24.3868
449 2 0.0160076 4.31113 12.1934 34.5481
450 2 0.0148981 4.31113 2.03224 44.7095
451 1 0.0335723 2.87409 2.03224 6.09717
452 2 0.0156983 2.87409 12.1934 16.2576
453 1 0.0352707 2.87409 2.03224 26.4189
454 2 0.0147983 2.87409 12.1934 36.5802
455 2 0.0165987 2.87409 2.03224 46.7416
456 2 0.0058511 4.31113 2.03224 8.12925
457 2 0.0129719 4.31113 12.1934 18.2906
458 2 0.0120144 4.31113 2.03224 28.451
459 2 0.0132977 4.31113 12.1934 38.6123
460 2 0.0208486 4.31113 2.03224 48.7736
461 2 0.0128054 2.87409 4.06448 8.12925
462 2 0.0176438 2.87409 14.2257 18.2906
463 1 0.0341333 2.87409 4.06448 28.451
464 1 0.0286127 2.87409 14.2257 38.6123
465 2 0.0175516 2.87409 4.06448 48.7736
466 2 0.0216051 4.31113 14.2257 0
467 2 0.00563366 4.31113 4.06448 10.1613
468 2 0.0150762 4.31113 14.2257 20.3227
469 2 0.00837312 4.31113 4.06448 30.484
470 1 0.0296495 4.31113 14.2257 40.6444
471 2 0.0221667 2.87409 16.2579 0
472 1 0.0329474 2.87409 6.09672 10.1613
473 2 0.01417 2.87409 16.2579 20.3227
474 2 0.0112477 2.87409 6.09672 30.484
475 2 0.00841491 2.87409 16.2579 40.6444
476 2 0.014017 4.31113 16.2579 2.03208
477 2 0.00644303 4.31113 6.09672 12.1934
478 2 0.00988185 4.31113 16.2579 22.3547
479 1 0.0303727 4.31113 6.09672 32.5161
480 2 0.0143939 4.31113 16.2579 42.6774
481 2 0.0138363 2.87409 18.2902 2.03208
482 2 0.0127458 2.87409 8.12896 12.1934
483 2 0.011461 2.87409 18.2902 22.3547
484 2 0.0100627 2.87409 8.12896 32.5161
485 2 0.0174481 2.87409 18.2902 42.6774
486 2 0.0141728 4.31113 18.2902 4.06416
487 2 0.0124186 4.31113 8.12896 14.2255
488 1 0.0355444 4.31113 18.2902 24.3868
489 2 0.0139263 4.31113 8.12896 34.5481
490 2 0.0101687 4.31113 18.2902 44.7095
491 1 0.034564 2.87409 0 4.06416
492 2 0.017103 2.87409 10.1612 14.2255
493 2 0.0130615 2.87409 0 24.3868
494 2 0.00919564 2.87409 10.1612 34.5481
495 2 0.0153534 2.87409 0 44.7095
496 1 0.0292197 4.31113 0 6.09717
497 2 0.0112297 4.31113 10.1612 16.2576
498 2 0.0131955 4.31113 0 26.4189
499 2 0.0147257 4.31113 10.1612 36.5802
500 2 0.00979329 4.31113 0 46.7416
501 2 0.0122593 5.74797 0 8.12925
502 2 0.0129999 5.74797 10.1612 18.2906
503 2 0.0170321 5.74797 0 28.451
504 2 0.00902691 5.74797 10.1612 38.6123
505 2 0.0229582 5.74797 0 48.7736
506 2 0.0187821 7.18501 10.1612 0
507 2 0.0120946 7.18501 0 10.1613
508 2 0.0140702 7.18501 10.1612 20.3227
509 2 0.0136945 7.18501 0 30.484
510 2 0.0138166 7.18501 10.1612 40.6444
511 2 0.0200839 5.74797 12.1934 0
512 1 0.0314208 5.74797 2.03224 10.1613
513 2 0.0127233 5.74797 12.1934 20.3227
514 2 0.0151039 5.74797 2.03224 30.484
515 2 0.00983302 5.74797 12.1934 40.6444
516 2 0.013148 7.18501 12.1934 2.03208
517 2 0.00527778 7.18501 2.03224 12.1934
518 2 0.0156806 7.18501 12.1934 22.3547
519 2 0.0143633 7.18501 2.03224 32.5161
520 2 0.0109708 7.18501 12.1934 42.6774
521 2 0.0131761 5.74797 14.2257 2.03208
522 1 0.0361151 5.74797 4.06448 12.1934
523 2 0.0139774 5.74797 14.2257 22.3547
524 1 0.0283868 5.74797 4.06448 32.5161
525 2 0.010214 5.74797 14.2257 42.6774
526 2 0.0141226 7.18501 14.2257 4.06416
527 2 0.0121517 7.18501 4.06448 14.2255
528 2 0.010727 7.18501 14.2257 24.3868
529 2 0.0120138 7.18501 4.06448 34.5481
530 2 0.0147807 7.18501 14.2257 44.7095
531 2 0.0154067 5.74797 16.2579 4.06416
532 2 0.0148973 5.74797 6.09672 14.2255
533 2 0.0120168 5.74797 16.2579 24.3868
534 1 0.0308437 5.74797 6.09672 34.5481
535 2 0.0127139 5.74797 16.2579 44.7095
536 2 0.0124437 7.18501 16.2579 6.09717
537 2 0.0147018 7.18501 6.09672 16.2576
538 2 0.0140309 7.18501 16.2579 26.4189
539 2 0.0124049 7.18501 6.09672 36.5802
540 1 0.0331556 7.18501 16.2579 46.7416
541 2 0.0146363 5.74797 18.2902 6.09717
542 1 0.0381705 5.74797 8.12896 16.2576
543 2 0.0149095 5.74797 18.2902 26.4189
544 2 0.0119239 5.74797 8.12896 36.5802
545 2 0.0109087 5.74797 18.2902 46.7416
546 2 0.0148343 7.18501 18.2902 8.12925
547 2 0.0107383 7.18501 8.12896 18.2906
548 2 0.0118684 7.18501 18.2902 28.451
549 2 0.0106712 7.18501 8.12896 38.6123
550 2 0.0175192 7.18501 18.2902 48.7736
551 2 0.0177662 5.74797 8.12896 0
552 2 0.0189017 5.74797 18.2902 10.1613
553 2 0.0125632 5.74797 8.12896 20.3227
554 2 0.0131132 5.74797 18.2902 30.484
555 1 0.033487 5.74797 8.12896 40.6444
556 2 0.0140815 7.18501 8.12896 2.03208
557 2 0.0132388 7.18501 18.2902 12.1934
558 2 0.0145409 7.18501 8.12896 22.3547
559 2 0.0181467 7.18501 18.2902 32.5161
560 2 0.0126803 7.18501 8.12896 42.6774
561 1 0.0362615 5.74797 10.1612 2.03208
562 2 0.0131184 5.74797 0 12.1934
563 2 0.0153562 5.74797 10.1612 22.3547
564 2 0.0147645 5.74797 0 32.5161
565 2 0.00690398 5.74797 10.1612 42.6774
566 2 0.011002 7.18501 10.1612 4.06416
567 1 0.0309894 7.18501 0 14.2255
568 2 0.00958513 7.18501 10.1612 24.3868
569 2 0.0157737 7.18501 0 34.5481
570 1 0.0324488 7.18501 10.1612 44.7095
571 2 0.0145501 5.74797 12.1934 4.06416
572 2 0.0127835 5.74797 2.03224 14.2255
573 2 0.0147989 5.74797 12.1934 24.3868
574 2 0.010057 5.74797 2.03224 34.5481
575 2 0.0100313 5.74797 12.1934 44.7095
576 2 0.0129477 7.18501 12.1934 6.09717
577 1 0.0305866 7.18501 2.03224 16.2576
578 1 0.0322425 7.18501 12.1934 26.4189
579 2 0.0177999 7.18501 2.03224 36.5802
580 2 0.0118451 7.18501 12.1934 46.7416
581 2 0.011455 5.74797 14.2257 6.09717
582 2 0.0135791 5.74797 4.06448 16.2576
583 2 0.0138092 5.74797 14.2257 26.4189
584 2 0.0141921 5.74797 4.06448 36.5802
585 2 0.00910725 5.74797 14.2257 46.7416
586 2 0.0143376 7.18501 14.2257 8.12925
587 1 0.0292019 7.18501 4.06448 18.2906
588 2 0.0115636 7.18501 14.2257 28.451
589 2 0.013983 7.18501 4.06448 38.6123
590 2 0.0144352 7.18501 14.2257 48.7736
591 2 0.0178476 5.74797 16.2579 8.12925
592 2 0.0106981 5.74797 6.09672 18.2906
593 1 0.0345211 5.74797 16.2579 28.451
594 2 0.0125608 5.74797 6.09672 38.6123
595 1 0.0386538 5.74797 16.2579 48.7736
596 1 0.0404878 7.18501 6.09672 0
597 2 0.0161433 7.18501 16.2579 10.1613
598 1 0.0323553 7.18501 6.09672 20.3227
599 2 0.0108564 7.18501 16.2579 30.484
600 2 0.00878278 7.18501 6.09672 40.6444
601 2 0.0112171 5.74797 6.09672 2.03208
602 2 0.0157191 5.74797 16.2579 12.1934
603 2 0.0150754 5.74797 6.09672 22.3547
604 2 0.0129273 5.74797 16.2579 32.5161
605 2 0.00946464 5.74797 6.09672 42.6774
606 2 0.0156346 7.18501 6.09672 4.06416
607 2 0.0182978 7.18501 16.2579 14.2255
608 2 0.0158691 7.18501 6.09672 24.3868
609 2 0.0136783 7.18501 16.2579 34.5481
610 2 0.00794084 7.18501 6.09672 44.7095
611 2 0.0131237 5.74797 8.12896 4.06416
612 2 0.015538 5.74797 18.2902 14.2255
613 2 0.0140603 5.74797 8.12896 24.3868
614 2 0.0180901 5.74797 18.2902 34.5481
615 1 0.0266238 5.74797 8.12896 44.7095
616 1 0.0334804 7.18501 8.12896 6.09717
617 2 0.0134097 7.18501 18.2902 16.2576
618 1 0.035646 7.18501 8.12896 26.4189
619 2 0.0144524 7.18501 18.2902 36.5802
620 1 0.0300517 7.18501 8.12896 46.7416
621 2 0.0145949 5.74797 10.1612 6.09717
622 2 0.0119213 5.74797 0 16.2576
623 2 0.0109272 5.74797 10.1612 26.4189
624 2 0.0181931 5.74797 0 36.5802
625 2 0.00225165 5.74797 10.1612 46.7416
626 2 0.0122752 7.18501 10.1612 8.12925
627 2 0.0119559 7.18501 0 18.2906
628 2 0.0145044 7.18501 10.1612 28.451
629 2 0.0122523 7.18501 0 38.6123
630 2 0.0161386 7.18501 10.1612 48.7736
631 2 0.017802 5.74797 12.1934 8.12925
632 1 0.0307292 5.74797 2.03224 18.2906
633 2 0.0132705 5.74797 12.1934 28.451
634 2 0.0147438 5.74797 2.03224 38.6123
635 1 0.0415418 5.74797 12.1934 48.7736
636 1 0.0390337 7.18501 2.03224 0
637 2 0.0160295 7.18501 12.1934 10.1613
638 1 0.0329258 7.18501 2.03224 20.3227
639 2 0.0104744 7.18501 12.1934 30.484
640 2 0.0135787 7.18501 2.03224 40.6444
641 2 0.0134042 5.74797 4.06448 0
642 2 0.0155007 5.74797 14.2257 10.1613
643 1 0.0276757 5.74797 4.06448 20.3227
644 2 0.011592 5.74797 14.2257 30.484
645 2 0.0171055 5.74797 4.06448 40.6444
646 2 0.00772343 7.18501 4.06448 2.03208
647 2 0.0160426 7.18501 14.2257 12.1934
648 2 0.0131486 7.18501 4.06448 22.3547
649 2 0.0103749 7.18501 14.2257 32.5161
650 1 0.0315662 7.18501 4.06448 42.6774
651 2 0.0145361 5.74797 4.06448 4.06416
652 2 0.0153895 5.74797 14.2257 14.2255
653 2 0.0196718 5.74797 4.06448 24.3868
654 1 0.0373721 5.74797 14.2257 34.5481
655 2 0.0111326 5.74797 4.06448 44.7095
656 2 0.011344 7.18501 4.06448 6.09717
657 2 0.0133676 7.18501 14.2257 16.2576
658 2 0.015717 7.18501 4.06448 26.4189
659 2 0.0155079 7.18501 14.2257 36.5802
660 2 0.0116683 7.18501 4.06448 46.7416
661 2 0.0143152 5.74797 6.09672 6.09717
662 2 0.0144338 5.74797 16.2579 16.2576
663 2 0.0107715 5.74797 6.09672 26.4189
664 2 0.014466 5.74797 16.2579 36.5802
665 2 0.00859238 5.74797 6.09672 46.7416
666 2 0.0120693 7.18501 6.09672 8.12925
667 1 0.0293757 7.18501 16.2579 18.2906
668 1 0.0297858 7.18501 6.09672 28.451
669 2 0.0150322 7.18501 16.2579 38.6123
670 2 0.0181464 7.18501 6.09672 48.7736
671 2 0.0162077 5.74797 8.12896 8.12925
672 2 0.011182 5.74797 18.2902 18.2906
673 2 0.00957627 5.74797 8.12896 28.451
674 2 0.0112312 5.74797 18.2902 38.6123
675 2 0.018825 5.74797 8.12896 48.7736
676 2 0.0205764 7.18501 18.2902 0
677 2 0.0120267 7.18501 8.12896 10.1613
678 1 0.0286328 7.18501 18.2902 20.3227
679 2 0.012208 7.18501 8.12896 30.484
680 2 0.0087273 7.18501 18.2902 40.6444
681 2 0.0164618 5.74797 0 0
682 2 0.0152805 5.74797 10.1612 10.1613
683 2 0.00876331 5.74797 0 20.3227
684 2 0.015551 5.74797 10.1612 30.484
685 1 0.0381054 5.74797 0 40.6444
686 2 0.0130134 7.18501 0 2.03208
687 2 0.0108157 7.18501 10.1612 12.1934
688 2 0.0130252 7.18501 0 22.3547
689 2 0.0153899 7.18501 10.1612 32.5161
690 2 0.00851149 7.18501 0 42.6774
691 1 0.0314671 5.74797 2.03224 2.03208
692 2 0.0166698 5.74797 12.1934 12.1934
693 2 0.0156746 5.74797 2.03224 22.3547
694 2 0.0122139 5.74797 12.1934 32.5161
695 2 0.00994193 5.74797 2.03224 42.6774
696 2 0.0147871 7.18501 2.03224 4.06416
697 2 0.0132409 7.18501 12.1934 14.2255
698 2 0.0114414 7.18501 2.03224 24.3868
699 2 0.0105518 7.18501 12.1934 34.5481
700 1 0.0313904 7.18501 2.03224 44.7095
701 2 0.0123411 5.74797 2.03224 6.09717
702 2 0.0180904 5.74797 12.1934 16.2576
703 2 0.0158805 5.74797 2.03224 26.4189
704 2 0.0137429 5.74797 12.1934 36.5802
705 2 0.0119824 5.74797 2.03224 46.7416
706 1 0.0293754 7.18501 2.03224 8.12925
707 2 0.0148642 7.18501 12.1934 18.2906
708 2 0.0128137 7.18501 2.03224 28.451
709 2 0.0150639 7.18501 12.1934 38.6123
710 2 0.0185847 7.18501 2.03224 48.7736
711 1 0.0340284 5.74797 4.06448 8.12925
712 2 0.0117273 5.74797 14.2257 18.2906
713 2 0.0120228 5.74797 4.06448 28.451
714 2 0.0120776 5.74797 14.2257 38.6123
715 2 0.02013 5.74797 4.06448 48.7736
716 2 0.0214066 7.18501 14.2257 0
717 1 0.0231958 7.18501 4.06448 10.1613
718 1 0.030999 7.18501 14.2257 20.3227
719 2 0.0107103 7.18501 4.06448 30.484
720 2 0.0124184 7.18501 14.2257 40.6444
721 2 0.0201907 5.74797 16.2579 0
722 2 0.0109789 5.74797 6.09672 10.1613
723 2 0.00411335 5.74797 16.2579 20.3227
724 1 0.0283316 5.74797 6.09672 30.484
725 2 0.0152519 5.74797 16.2579 40.6444
726 2 0.0156014 7.18501 16.2579 2.03208
727 2 0.00907178 7.18501 6.09672 12.1934
728 1 0.0302925 7.18501 16.2579 22.3547
729 2 0.00709488 7.18501 6.09672 32.5161
730 2 0.0140439 7.18501 16.2579 42.6774
731 2 0.0167434 5.74797 18.2902 2.03208
732 1 0.0386631 5.74797 8.12896 12.1934
733 1 0.0287824 5.74797 18.2902 22.3547
734 2 0.0136449 5.74797 8.12896 32.5161
735 2 0.0150453 5.74797 18.2902 42.6774
736 2 0.0139684 7.18501 18.2902 4.06416
737 2 0.00814314 7.18501 8.12896 14.2255
738 2 0.00815098 7.18501 18.2902 24.3868
739 2 0.0147866 7.18501 8.12896 34.5481
740 2 0.0127537 7.18501 18.2902 44.7095
741 2 0.0139674 5.74797 0 4.06416
742 2 0.0130594 5.74797 10.1612 14.2255
743 2 0.0143805 5.74797 0 24.3868
744 2 0.0154815 5.74797 10.1612 34.5481
745 1 0.0358162 5.74797 0 44.7095
746 2 0.0141967 7.18501 0 6.09717
747 2 0.0123303 7.18501 10.1612 16.2576
748 2 0.00957555 7.18501 0 26.4189
749 1 0.0362701 7.18501 10.1612 36.5802
750 2 0.0114017 7.18501 0 46.7416
751 2 0.00953645 8.62206 0 8.12925
752 2 0.0142632 8.62206 10.1612 18.2906
753 1 0.0345123 8.62206 0 28.451
754 2 0.0125098 8.62206 10.1612 38.6123
755 2 0.0195358 8.62206 0 48.7736
756 1 0.0336949 10.0591 10.1612 0
757 2 0.0101982 10.0591 0 10.1613
758 2 0.0107075 10.0591 10.1612 20.3227
759 2 0.00933997 10.0591 0 30.484
760 2 0.0126281 10.0591 10.1612 40.6444
761 2 0.0160793 8.62206 12.1934 0
762 1 0.026879 8.62206 2.03224 10.1613
763 2 0.0140974 8.62206 12.1934 20.3227
764 2 0.0185339 8.62206 2.03224 30.484
765 1 0.0333203 8.62206 12.1934 40.6444
766 1 0.0272059 10.0591 12.1934 2.03208
767 2 0.00654779 10.0591 2.03224 12.1934
768 2 0.0122632 10.0591 12.1934 22.3547
769 2 0.0095174 10.0591 2.03224 32.5161
770 1 0.0279283 10.0591 12.1934 42.6774
771 2 0.0147264 8.62206 14.2257 2.03208
772 2 0.0103259 8.62206 4.06448 12.1934
773 2 0.00321146 8.62206 14.2257 22.3547
774 2 0.0162146 8.62206 4.06448 32.5161
775 1 0.0330228 8.62206 14.2257 42.6774
776 2 0.0118337 10.0591 14.2257 4.06416
777 2 0.0166161 10.0591 4.06448 14.2255
778 1 0.0259283 10.0591 14.2257 24.3868
779 2 0.0131399 10.0591 4.06448 34.5481
780 2 0.0116397 10.0591 14.2257 44.7095
781 2 0.0126993 8.62206 16.2579 4.06416
782 2 0.0194891 8.62206 6.09672 14.2255
783 1 0.0325634 8.62206 16.2579 24.3868