ITEM: TIMESTEP
0
ITEM: NUMBER OF ATOMS
1946
ITEM: BOX BOUNDS pp pp ff
0.0000000000000000e+00 2.0118200000000002e+01
0.0000000000000000e+00 2.0322399999999998e+01
0.0000000000000000e+00 9.3773799999999994e+01
ITEM: ATOMS id type q x y z
1 2 0.0236328 0.0339693 0.0470461 8.07341
2 2 0.0233813 0.0119963 10.1304 18.3323
3 2 0.0259582 20.1124 20.2423 28.4181
4 2 0.0249425 20.1028 10.1092 38.6151
5 2 0.0347294 20.0935 0.0100821 48.6683
6 2 0.0342409 1.43704 10.1612 0
7 2 0.0209081 1.33995 20.3136 10.1458
8 2 0.0224341 1.48435 10.1904 20.3776
9 2 0.026843 1.45715 0.0359787 30.4696
10 2 0.0276377 1.46584 10.1041 40.6336
11 2 0.0295942 0 12.1934 0
12 2 0.0277259 0.0144734 2.06467 10.0952
13 2 0.0278346 0.0194139 12.2158 20.3531
14 2 0.0200016 20.0624 1.98542 30.5231
15 2 0.022551 0.0755747 12.1352 40.6689
16 1 0.0404835 1.43704 12.1934 2.03208
17 2 0.023387 1.42694 2.03472 12.1481
18 2 0.0261575 1.4402 12.1387 22.3779
19 1 0.0376276 1.47347 2.00601 32.51
20 2 0.0248611 1.47201 12.2197 42.6926
21 1 0.041643 0 14.2257 2.03208
22 2 0.0233424 20.0848 4.01237 12.2075
23 2 0.0231616 0.0156284 14.2168 22.3611
24 1 0.0443491 20.1179 4.07958 32.565
25 2 0.0250568 0.00441134 14.1696 42.6835
26 2 0.0164063 1.43704 14.2257 4.06416
27 1 0.040868 1.4402 4.05997 14.2328
28 2 0.0211213 1.39091 14.197 24.3933
29 2 0.0233621 1.51663 4.10233 34.5506
30 2 0.0237788 1.44529 14.1948 44.6876
31 1 0.0477988 0 16.2579 4.06416
32 2 0.0252934 20.0908 6.13198 14.2762
33 1 0.0443564 20.0904 16.3073 24.4247
34 2 0.0212451 0.0117488 6.06268 34.4821
35 2 0.0250706 0.055644 16.1997 44.7486
36 2 0.0224082 1.43704 16.2579 6.09717
37 2 0.0249715 1.43938 6.08638 16.2135
38 2 0.0212705 1.45744 16.2254 26.4429
39 2 0.025403 1.40222 6.10262 36.5288
40 2 0.0184851 1.42478 16.2489 46.7265
41 2 0.0254195 0 18.2902 6.09717
42 2 0.0294548 0.020363 8.09095 16.2352
43 1 0.0460706 0.00858204 18.2574 26.4099
44 2 0.0183968 0.00955794 8.11922 36.6414
45 2 0.0244945 0.0523185 18.3148 46.6819
46 1 0.0455739 1.44769 18.272 8.15913
47 2 0.020856 1.42228 8.11025 18.2292
48 2 0.0261959 1.46099 18.2806 28.5081
49 2 0.0262226 1.53027 8.16363 38.6143
50 2 0.0345035 1.43413 18.3012 48.7382
51 2 0.0330064 0 8.12896 0
52 2 0.0242195 0.00249463 18.2525 10.2297
53 1 0.048366 20.0991 8.15052 20.291
54 2 0.0280985 0.00719837 18.3399 30.5619
55 2 0.0250668 20.1099 8.12315 40.5773
56 2 0.0192834 1.43704 8.12896 2.03208
57 2 0.0253644 1.44456 18.2544 12.1874
58 2 0.0223625 1.43617 8.07819 22.3735
59 2 0.0221289 1.41451 18.2632 32.5874
60 2 0.028601 1.36861 8.1217 42.6546
61 2 0.0224154 0 10.1612 2.03208
62 2 0.0224319 0.0271212 20.2889 12.2436
63 2 0.0277992 20.1139 10.0877 22.337
64 1 0.0416778 20.0943 0.00219634 32.5167
65 2 0.0276734 0.0148415 10.201 42.6742
66 2 0.0237763 1.43704 10.1612 4.06416
67 2 0.0167001 1.44984 0.0272866 14.2065
68 2 0.0255512 1.41582 10.1864 24.4166
69 1 0.0396243 1.41284 20.3222 34.5493
70 2 0.0284936 1.46138 10.1636 44.6868
71 2 0.0255413 0 12.1934 4.06416
72 1 0.0391155 20.0956 2.01979 14.2209
73 2 0.0298729 0.00229073 12.1829 24.3668
74 1 0.0345386 0.0183384 2.09552 34.5365
75 2 0.0280532 20.1091 12.2095 44.733
76 2 0.0229783 1.43704 12.1934 6.09717
77 1 0.0386747 1.45143 2.06373 16.2668
78 2 0.0236364 1.43931 12.1577 26.3585
79 2 0.0226783 1.40339 2.02813 36.6482
80 2 0.0237159 1.44389 12.1582 46.725
81 2 0.0280454 0 14.2257 6.09717
82 2 0.022255 20.08 4.10957 16.2743
83 2 0.027597 0.0583402 14.2073 26.4568
84 2 0.02144 0.0123828 4.08541 36.5479
85 1 0.0419269 20.0529 14.2124 46.6596
86 2 0.0268113 1.3985 14.2315 8.14559
87 2 0.0237256 1.43994 3.98625 18.2629
88 2 0.0216818 1.46186 14.2457 28.471
89 1 0.0456733 1.42927 4.04482 38.6172
90 2 0.0360169 1.42389 14.268 48.7501
91 2 0.0263941 20.0992 16.2517 8.11773
92 2 0.0261937 0.0427909 6.07285 18.3048
93 2 0.0271156 0.0230268 16.2746 28.4761
94 1 0.0410427 20.1083 6.10372 38.5693
95 2 0.0320998 0.0227821 16.2835 48.6368
96 2 0.0314322 1.43704 6.09672 0
97 2 0.0264274 1.48263 16.308 10.1109
98 2 0.0207129 1.42136 6.06915 20.3532
99 2 0.0238549 1.47253 16.3198 30.425
100 2 0.0214369 1.36042 6.02351 40.6762
101 1 0.043364 0 6.09672 2.03208
102 2 0.0246648 0.0116599 16.2291 12.2186
103 2 0.0257675 20.0647 6.151 22.2986
104 2 0.0242272 0.0372078 16.2048 32.4178
105 2 0.0206882 20.118 6.0955 42.7602
106 2 0.0200742 1.43704 6.09672 4.06416
107 2 0.0210784 1.48949 16.2785 14.2042
108 1 0.0449062 1.43629 6.08264 24.3424
109 1 0.0449804 1.44412 16.2402 34.5381
110 2 0.0228056 1.47029 6.1001 44.7246
111 2 0.0279201 0 8.12896 4.06416
112 1 0.0413936 0.0138838 18.2741 14.2565
113 2 0.0242391 20.11 8.17979 24.3902
114 2 0.0217861 20.0755 18.273 34.4935
115 2 0.0297932 0.0379443 8.14501 44.7557
116 2 0.0210632 1.43704 8.12896 6.09717
117 2 0.0188981 1.46664 18.2853 16.2946
118 2 0.0250119 1.41535 8.11541 26.4253
119 2 0.0251739 1.43705 18.2681 36.4675
120 2 0.0235462 1.50432 8.1094 46.7619
121 2 0.0271933 0 10.1612 6.09717
122 1 0.0344487 0.0379065 20.3118 16.2284
123 2 0.0286302 20.111 10.1911 26.4771
124 2 0.0221597 0.0495561 20.3133 36.6292
125 2 0.0207125 0.0357283 10.1152 46.6478
126 1 0.0475731 1.43365 10.1737 8.15068
127 1 0.0409273 1.46604 0.024984 18.2757
128 2 0.0264261 1.46877 10.1995 28.4322
129 2 0.0264314 1.44347 0.0321894 38.645
130 1 0.0554896 1.38068 10.157 48.751
131 2 0.0219723 20.0722 12.2317 8.08854
132 2 0.0230381 20.0666 2.00918 18.3029
133 1 0.0408951 20.0885 12.2378 28.4386
134 2 0.0236112 20.0886 2.01658 38.6727
135 2 0.0243555 0.0269295 12.263 48.5557
136 2 0.0343067 1.43704 2.03224 0
137 2 0.0251574 1.37137 12.1649 10.1154
138 2 0.0210888 1.41437 2.02836 20.249
139 1 0.0404989 1.45307 12.152 30.483
140 2 0.026013 1.48696 2.0929 40.654
141 2 0.0356208 0 4.06448 0
142 2 0.026629 0.000675157 14.269 10.186
143 2 0.0288741 0.0665929 4.06841 20.2934
144 1 0.0428508 20.1046 14.2095 30.4919
145 2 0.0213501 20.0784 4.02882 40.606
146 2 0.0201047 1.43704 4.06448 2.03208
147 2 0.0259573 1.45976 14.2476 12.1522
148 2 0.0225435 1.43182 4.15134 22.4071
149 2 0.0238591 1.44867 14.2106 32.5634
150 1 0.0432042 1.43803 4.05283 42.6731
151 2 0.0277872 0 4.06448 4.06416
152 1 0.0424279 0.0174447 14.2299 14.226
153 2 0.026204 20.0073 4.02928 24.3952
154 2 0.0240388 20.1096 14.1963 34.5382
155 1 0.0438816 20.1109 4.06419 44.716
156 2 0.0190366 1.43704 4.06448 6.09717
157 2 0.0231229 1.44951 14.1794 16.2917
158 2 0.0235329 1.40527 4.12844 26.3101
159 2 0.0274233 1.44597 14.2826 36.494
160 2 0.0223248 1.43499 4.09337 46.7644
161 1 0.0416506 0 6.09672 6.09717
162 1 0.0382652 0.0206702 16.2514 16.2434
163 2 0.025667 0.00840092 6.11823 26.4345
164 2 0.0258455 20.0396 16.2745 36.5658
165 2 0.022384 20.0969 6.06645 46.6721
166 1 0.0408545 1.43413 6.06149 8.14295
167 2 0.0273408 1.50747 16.278 18.3085
168 2 0.024626 1.42967 6.14362 28.4642
169 2 0.0224629 1.43566 16.2508 38.617
170 1 0.0556787 1.42214 6.0315 48.7517
171 2 0.0243643 20.1121 8.09722 8.07366
172 2 0.0242235 0.0118122 18.2593 18.2521
173 2 0.0253727 20.1111 8.15185 28.5016
174 2 0.0281021 0.0557811 18.3196 38.5823
175 2 0.026802 20.0732 8.0689 48.5961
176 2 0.0323085 1.43704 18.2902 0
177 2 0.0230411 1.38734 8.1002 10.128
178 2 0.025263 1.46311 18.2625 20.2667
179 2 0.0299857 1.46155 8.12719 30.4974
180 2 0.0265256 1.41853 18.3277 40.6692
181 2 0.0295277 0 0 0
182 2 0.0235218 0.00498424 10.1439 10.2054
183 2 0.0232906 20.1093 20.2735 20.3052
184 2 0.0191009 0.0012977 10.1158 30.4172
185 2 0.0279291 0.00683223 0.046173 40.6571
186 2 0.0203774 1.43704 0 2.03208
187 2 0.0287253 1.43612 10.1491 12.1967
188 2 0.0237442 1.34755 20.3182 22.3939
189 1 0.0462212 1.39034 10.176 32.4998
190 2 0.0288963 1.47688 0.00205612 42.6593
191 2 0.0254942 0 2.03224 2.03208
192 2 0.0247456 0.0321145 12.2657 12.2409
193 2 0.0257187 0.0760943 2.07245 22.3162
194 2 0.0164654 0.0111988 12.2465 32.5474
195 2 0.0220068 20.1155 2.00744 42.6535
196 2 0.0258296 1.43704 2.03224 4.06416
197 2 0.0256601 1.48835 12.1568 14.2364
198 2 0.0241001 1.39263 2.0452 24.3916
199 2 0.0279087 1.43288 12.1597 34.5865
200 2 0.0242239 1.42857 2.00136 44.6544
201 2 0.0257088 0 2.03224 6.09717
202 2 0.0225244 0.00656854 12.1782 16.1954
203 2 0.0258999 20.1084 2.05458 26.3924
204 2 0.0211212 0.019289 12.2098 36.5569
205 2 0.0215821 0.0077365 2.10135 46.6713
206 2 0.0232353 1.45616 2.05289 8.15406
207 2 0.0259108 1.34868 12.2121 18.2928
208 2 0.0232382 1.32885 1.98169 28.4439
209 2 0.0213352 1.34001 12.1685 38.59
210 2 0.0364569 1.45048 2.02004 48.7031
211 1 0.0430179 20.0937 4.05561 8.11833
212 2 0.0233656 0.0229937 14.3227 18.2787
213 2 0.0219448 0.109127 4.07112 28.4495
214 2 0.0241764 0.0387623 14.2276 38.5377
215 2 0.0323428 20.0496 4.00569 48.6548
216 2 0.0328689 1.43704 14.2257 0
217 2 0.0202688 1.42628 4.06832 10.167
218 2 0.025453 1.41018 14.2293 20.3081
219 2 0.0242982 1.38649 4.0081 30.4837
220 1 0.0435648 1.42998 14.2456 40.6349
221 2 0.0330185 0 16.2579 0
222 2 0.0232401 20.0619 6.0478 10.1577
223 2 0.0283503 0.00886214 16.2393 20.275
224 2 0.023088 0.0723401 6.08647 30.5786
225 2 0.0231437 20.0724 16.2857 40.5961
226 2 0.0222098 1.43704 16.2579 2.03208
227 1 0.0419124 1.40449 6.0837 12.2158
228 2 0.0240965 1.39558 16.2632 22.3307
229 2 0.0267537 1.5273 6.14655 32.5704
230 2 0.0246329 1.32864 16.2355 42.6319
231 2 0.0216971 0 18.2902 2.03208
232 2 0.0255287 20.0654 8.15891 12.186
233 2 0.0240257 0.0148352 18.2726 22.3788
234 2 0.0192569 20.1057 8.08935 32.4778
235 2 0.0255241 20.1025 18.3369 42.668
236 2 0.0259569 1.43704 18.2902 4.06416
237 2 0.0267995 1.46092 8.0881 14.1811
238 2 0.0238417 1.5364 18.3029 24.3813
239 1 0.0454922 1.39513 8.17199 34.5389
240 2 0.0230708 1.40166 18.3028 44.6389
241 2 0.0260888 0 0 4.06416
242 2 0.0284002 0.00764268 10.138 14.1798
243 2 0.0272467 0.0344709 20.2711 24.4748
244 2 0.0135788 20.0819 10.2004 34.569
245 2 0.0268297 20.1152 0.00320195 44.6711
246 2 0.0189127 1.43704 0 6.09717
247 2 0.0265221 1.42572 10.1123 16.2204
248 2 0.0232079 1.44991 0.0176296 26.4327
249 1 0.0483618 1.48691 10.1584 36.5827
250 2 0.0228127 1.42578 0.0325215 46.6722
251 1 0.0427285 2.86356 20.3214 8.14778
252 1 0.0450666 2.84187 10.1867 18.2773
253 2 0.0276038 2.89061 0.0489846 28.4098
254 2 0.0204977 2.8744 10.2468 38.6373
255 2 0.0330666 2.84077 20.2954 48.6228
256 2 0.0338268 4.31113 10.1612 0
257 2 0.0219613 4.34308 20.3024 10.1481
258 1 0.0445972 4.26696 10.1546 20.3317
259 2 0.0279377 4.31866 0.0602932 30.5016
260 1 0.0421003 4.30286 10.1443 40.6579
261 2 0.0350145 2.87409 12.1934 0
262 2 0.0275685 2.91777 1.9768 10.1793
263 2 0.0228303 2.85331 12.2517 20.314
264 2 0.0252783 2.84749 2.06865 30.3966
265 1 0.0370568 2.87181 12.2123 40.6251
266 2 0.0184258 4.31113 12.1934 2.03208
267 2 0.0202307 4.31315 2.00304 12.1908
268 2 0.0242518 4.29226 12.1079 22.3024
269 1 0.0416536 4.26103 2.05403 32.5236
270 1 0.0425079 4.32705 12.1983 42.6807
271 2 0.019793 2.87409 14.2257 2.03208
272 1 0.0415236 2.88147 4.06176 12.1876
273 1 0.0474503 2.87688 14.2009 22.3387
274 2 0.0180584 2.80557 4.0958 32.499
275 2 0.0171979 2.84984 14.262 42.6863
276 1 0.0427281 4.31113 14.2257 4.06416
277 2 0.0242897 4.2408 4.06832 14.268
278 2 0.0244409 4.36164 14.2377 24.377
279 1 0.0386607 4.33048 4.04449 34.4996
280 1 0.0457923 4.3052 14.2199 44.6926
281 2 0.0258541 2.87409 16.2579 4.06416
282 2 0.0239574 2.89342 6.09948 14.2297
283 2 0.0237787 2.80252 16.1729 24.345
284 2 0.0220822 2.91429 6.13303 34.5926
285 1 0.0444792 2.84316 16.264 44.6597
286 2 0.0255508 4.31113 16.2579 6.09717
287 2 0.0243724 4.30071 6.0989 16.2318
288 2 0.0226177 4.27539 16.3463 26.3259
289 2 0.0261074 4.28978 6.05939 36.6466
290 2 0.0163907 4.37771 16.1982 46.6364
291 2 0.0221925 2.87409 18.2902 6.09717
292 2 0.024811 2.93272 8.11179 16.3331
293 2 0.0256432 2.80453 18.3062 26.4473
294 2 0.0220707 2.89528 8.09779 36.5588
295 1 0.0439075 2.88756 18.2721 46.6416
296 2 0.023853 4.2855 18.2561 8.11241
297 2 0.0207993 4.321 8.15297 18.365
298 2 0.0248336 4.26669 18.3144 28.5031
299 1 0.0443004 4.31394 8.15676 38.6307
300 2 0.031723 4.3177 18.3313 48.7203
301 2 0.0370689 2.87409 8.12896 0
302 2 0.0227052 2.90715 18.3577 10.1852
303 2 0.0237543 2.76751 8.11359 20.2583
304 2 0.0257831 2.86612 18.3328 30.5497
305 2 0.0224656 2.85678 8.04513 40.6961
306 2 0.0189382 4.31113 8.12896 2.03208
307 2 0.024802 4.3463 18.2705 12.2216
308 2 0.0257406 4.29317 8.15523 22.2584
309 2 0.025251 4.36645 18.2682 32.466
310 2 0.0198164 4.24702 8.21365 42.6689
311 2 0.0210205 2.87409 10.1612 2.03208
312 1 0.0492567 2.88084 20.2957 12.1628
313 2 0.0252124 2.85411 10.0997 22.4401
314 2 0.0206471 2.8692 20.2688 32.5049
315 2 0.0209549 2.80753 10.1986 42.6627
316 2 0.022586 4.31113 10.1612 4.06416
317 2 0.023705 4.41348 0.00740209 14.1996
318 2 0.0269798 4.3267 10.2073 24.3966
319 2 0.0248275 4.3046 20.3211 34.5169
320 1 0.0445787 4.33288 10.1979 44.6728
321 1 0.0431699 2.87409 12.1934 4.06416
322 2 0.0216509 2.85962 1.97364 14.1652
323 2 0.0254147 2.9262 12.2586 24.3698
324 1 0.0384893 2.85239 2.01506 34.6001
325 2 0.0223209 2.81796 12.189 44.6921
326 2 0.0227603 4.31113 12.1934 6.09717
327 2 0.0241159 4.29342 2.07655 16.2008
328 2 0.0252162 4.39523 12.1724 26.3827
329 2 0.0261689 4.35674 2.06922 36.5885
330 2 0.0229824 4.26984 12.2167 46.6146
331 1 0.043483 2.87409 14.2257 6.09717
332 2 0.0249073 2.86164 4.10878 16.3081
333 1 0.0486025 2.92871 14.2017 26.4195
334 2 0.0239769 2.86632 4.03789 36.5657
335 2 0.0218389 2.75869 14.2441 46.6665
336 2 0.0255678 4.36334 14.2223 8.15395
337 2 0.0191547 4.35573 4.08344 18.2538
338 2 0.0218836 4.28491 14.1709 28.583
339 2 0.0277633 4.25989 4.08328 38.5865
340 2 0.0320787 4.23142 14.2521 48.6407
341 2 0.024462 2.89141 16.1952 8.09224
342 1 0.0474139 2.85659 6.06521 18.3111
343 2 0.0249712 2.95507 16.223 28.3873
344 2 0.0234423 2.80121 6.12139 38.614
345 2 0.0332242 2.94449 16.3306 48.588
346 2 0.0320596 4.31113 6.09672 0
347 2 0.0273638 4.31405 16.2705 10.1457
348 2 0.0222721 4.36241 6.1686 20.3249
349 1 0.0423924 4.32971 16.2721 30.4897
350 2 0.0244222 4.30394 6.09597 40.5789
351 1 0.0396812 2.87409 6.09672 2.03208
352 2 0.0287286 2.89144 16.2712 12.1562
353 2 0.0254585 2.92245 6.10964 22.3097
354 1 0.0423473 2.89058 16.242 32.5152
355 1 0.0436398 2.88895 6.10147 42.667
356 2 0.0236015 4.31113 6.09672 4.06416
357 2 0.0275222 4.25075 16.2642 14.2194
358 2 0.0256403 4.2483 6.0334 24.3615
359 2 0.0225186 4.27397 16.2711 34.6095
360 1 0.0439526 4.30692 6.1265 44.6894
361 1 0.0482378 2.87409 8.12896 4.06416
362 2 0.0256509 2.85045 18.387 14.2259
363 1 0.0437061 2.90213 8.13164 24.4176
364 2 0.0245612 2.92907 18.2866 34.5073
365 2 0.0202353 2.83087 8.15408 44.6499
366 2 0.0251596 4.31113 8.12896 6.09717
367 2 0.0275807 4.29187 18.2559 16.2248
368 2 0.0241148 4.36098 8.08528 26.5043
369 2 0.0257033 4.36013 18.2482 36.5876
370 1 0.0399142 4.34589 8.14978 46.6426
371 2 0.0244558 2.87409 10.1612 6.09717
372 1 0.0439628 2.9017 0.0228337 16.2321
373 2 0.027594 2.90108 10.1062 26.3864
374 2 0.0253746 2.89942 20.3104 36.5835
375 2 0.0195283 2.85303 10.1546 46.6792
376 2 0.0272827 4.25415 10.1878 8.13002
377 2 0.0211669 4.27642 20.289 18.3373
378 2 0.0285214 4.28994 10.2221 28.4694
379 2 0.0229544 4.34032 0.015585 38.5701
380 2 0.0310826 4.21991 10.118 48.6004
381 2 0.0243466 2.865 12.258 8.10638
382 2 0.0223102 2.97733 2.02653 18.323
383 2 0.0219011 2.82936 12.2151 28.3592
384 2 0.026562 2.90007 2.01714 38.6197
385 2 0.0321019 2.93355 12.1917 48.6277
386 2 0.029114 4.31113 2.03224 0
387 2 0.0274938 4.30421 12.1952 10.1518
388 2 0.0172279 4.35477 1.99984 20.3451
389 1 0.0471477 4.25629 12.2108 30.496
390 2 0.0261136 4.27713 2.06045 40.641
391 2 0.0343976 2.87409 4.06448 0
392 2 0.0279183 2.86937 14.2195 10.1456
393 1 0.0453308 2.92235 4.06052 20.325
394 2 0.0206294 2.77328 14.2744 30.528
395 2 0.022471 2.91783 4.11759 40.6763
396 1 0.0406719 4.31113 4.06448 2.03208
397 2 0.0264005 4.2934 14.2264 12.2015
398 2 0.0218565 4.32331 4.07936 22.407
399 2 0.0224768 4.36069 14.1906 32.3945
400 2 0.0237087 4.37369 4.08606 42.7301
401 2 0.0272133 2.87409 4.06448 4.06416
402 2 0.0266701 2.82318 14.2022 14.2345
403 2 0.024143 2.87718 3.95464 24.3981
404 2 0.0240086 2.96846 14.2175 34.5115
405 2 0.0219654 2.83453 4.06902 44.7174
406 2 0.0258518 4.31113 4.06448 6.09717
407 2 0.0276783 4.27291 14.2243 16.252
408 2 0.0227429 4.35842 4.09997 26.4024
409 2 0.0228304 4.30641 14.301 36.6024
410 2 0.0259772 4.30823 4.08509 46.665
411 2 0.0261107 2.87409 6.09672 6.09717
412 2 0.0281681 2.84286 16.2391 16.2734
413 2 0.0219471 2.87005 6.10575 26.4224
414 2 0.0219245 2.83685 16.2756 36.6499
415 2 0.019107 2.8581 6.09974 46.6987
416 2 0.0238969 4.27331 6.08433 8.10829
417 2 0.027196 4.35254 16.2928 18.3077
418 1 0.0422727 4.34136 6.09847 28.4666
419 1 0.0417904 4.33937 16.2508 38.6441
420 2 0.033037 4.2804 6.11728 48.5993
421 2 0.023205 2.87012 8.1156 8.13858
422 2 0.0217439 2.89995 18.2989 18.2664
423 2 0.027105 2.86919 8.13995 28.4509
424 1 0.0449984 2.87007 18.2981 38.5902
425 2 0.0294082 2.87776 8.10599 48.7107
426 2 0.0328577 4.31113 18.2902 0
427 2 0.024471 4.29693 8.14906 10.1426
428 1 0.0436185 4.31432 18.2843 20.3042
429 2 0.024966 4.30142 8.04413 30.495
430 2 0.0233587 4.34247 18.2486 40.663
431 1 0.0549844 2.87409 0 0
432 2 0.0258894 2.87302 10.1702 10.1941
433 1 0.0431579 2.83733 0.00789007 20.3862
434 2 0.0205247 2.88309 10.096 30.4535
435 2 0.0249419 2.92267 20.2791 40.5952
436 2 0.0191113 4.31113 0 2.03208
437 2 0.0250193 4.31533 10.2046 12.234
438 2 0.0201336 4.30032 20.3139 22.3991
439 2 0.0269259 4.27183 10.2099 32.4471
440 2 0.0232684 4.25493 20.2626 42.6723
441 2 0.0215526 2.87409 2.03224 2.03208
442 2 0.0275694 2.84951 12.2074 12.1698
443 1 0.0459406 2.83772 2.05168 22.3214
444 2 0.0230046 2.87105 12.2134 32.5872
445 2 0.0276069 2.90174 2.01637 42.6799
446 2 0.019522 4.31113 2.03224 4.06416
447 2 0.0279829 4.31346 12.1738 14.2384
448 2 0.0243763 4.36721 2.01836 24.3888
449 2 0.0272256 4.31806 12.1737 34.5778
450 2 0.0265177 4.32928 2.06555 44.6844
451 1 0.0439079 2.87409 2.03224 6.09717
452 2 0.026828 2.86978 12.1524 16.3245
453 1 0.0454782 2.88748 2.07141 26.452
454 2 0.0263644 2.89168 12.256 36.6269
455 2 0.0264219 2.86768 2.06118 46.6702
456 2 0.0176509 4.36842 2.00783 8.12226
457 2 0.0242315 4.32231 12.1808 18.3255
458 2 0.0238004 4.36338 1.98426 28.4654
459 2 0.0246068 4.37385 12.1631 38.6389
460 2 0.0358835 4.32794 2.01507 48.6931
461 2 0.0246443 2.88897 4.01291 8.12674
462 2 0.028925 2.90948 14.2314 18.3145
463 1 0.0446994 2.85123 4.03726 28.3895
464 1 0.0394651 2.86265 14.1788 38.6195
465 2 0.0325861 2.95157 4.02277 48.6824
466 2 0.0363583 4.31113 14.2257 0
467 2 0.0176426 4.29114 4.05795 10.13
468 2 0.0262294 4.3704 14.2075 20.2992
469 2 0.0202949 4.26178 4.0625 30.5061
470 1 0.0404854 4.31294 14.241 40.6678
471 2 0.0369035 2.87409 16.2579 0
472 1 0.0433908 2.85791 6.09703 10.1863
473 2 0.0254606 2.89941 16.1959 20.3662
474 2 0.0230667 2.84427 6.03789 30.4509
475 2 0.0203816 2.8253 16.3034 40.6362
476 2 0.0243909 4.31113 16.2579 2.03208
477 2 0.0179976 4.27732 6.13823 12.226
478 2 0.0216865 4.29665 16.2971 22.4048
479 1 0.0407009 4.31419 6.07205 32.5068
480 2 0.0254989 4.3304 16.203 42.6317
481 2 0.0242385 2.87409 18.2902 2.03208
482 2 0.0242086 2.89155 8.13621 12.1261
483 2 0.0230975 2.86019 18.3213 22.316
484 2 0.0218029 2.88556 8.17041 32.4916
485 2 0.0284657 2.8708 18.2028 42.6903
486 2 0.0258628 4.31113 18.2902 4.06416
487 2 0.0241007 4.27585 8.14292 14.2227
488 1 0.0464091 4.28648 18.3012 24.3959
489 2 0.025198 4.23978 8.13072 34.4824
490 2 0.0218303 4.34905 18.2755 44.6204
491 1 0.0452355 2.87409 0 4.06416
492 2 0.0283555 2.87399 10.1249 14.2203
493 2 0.024537 2.87932 0.12586 24.3833
494 2 0.0211075 2.9063 10.1801 34.5365
495 2 0.0265032 2.93242 20.2924 44.7376
496 1 0.0397414 4.31113 0 6.09717
497 2 0.0230756 4.32094 10.1778 16.2076
498 2 0.0252484 4.33403 20.2664 26.3646
499 2 0.026277 4.3418 10.1305 36.6342
500 2 0.0197546 4.30667 0.0411006 46.7211
501 2 0.0241083 5.73259 20.3065 8.14494
502 2 0.024502 5.71631 10.1252 18.2382
503 2 0.0282049 5.79209 20.296 28.47
504 2 0.0207893 5.7843 10.1736 38.6188
505 2 0.0374963 5.76723 20.3096 48.6796
506 2 0.0336473 7.18501 10.1612 0
507 2 0.0233597 7.16293 20.3071 10.1241
508 2 0.0251943 7.10502 10.1695 20.3093
509 2 0.0251638 7.185 0.0116758 30.4725
510 2 0.0250034 7.18119 10.1514 40.6416
511 2 0.0348972 5.74797 12.1934 0
512 1 0.0417897 5.77117 2.05204 10.1744
513 2 0.0240152 5.73469 12.2031 20.3043
514 2 0.0260616 5.754 2.06145 30.532
515 2 0.0218212 5.80931 12.1862 40.6482
516 2 0.0235607 7.18501 12.1934 2.03208
517 2 0.0169159 7.15023 2.03976 12.2374
518 2 0.0268324 7.16125 12.2073 22.2898
519 2 0.025934 7.18914 2.01348 32.5144
520 2 0.0222797 7.1653 12.1201 42.7395
521 2 0.0235627 5.74797 14.2257 2.03208
522 1 0.0464389 5.68617 4.08808 12.2124
523 2 0.0254069 5.69039 14.2199 22.3508
524 1 0.0393151 5.80882 4.07785 32.4932
525 2 0.0215503 5.84048 14.1968 42.6941
526 2 0.0258606 7.18501 14.2257 4.06416
527 2 0.0234867 7.14527 4.07874 14.2803
528 2 0.0225841 7.17686 14.2191 24.419
529 2 0.0237256 7.18979 4.04625 34.5709
530 2 0.0259981 7.13426 14.3048 44.7726
531 2 0.0271041 5.74797 16.2579 4.06416
532 2 0.0261069 5.74761 6.11886 14.2093
533 2 0.0236088 5.78939 16.2581 24.372
534 1 0.0415238 5.73114 6.10891 34.5549
535 2 0.0241428 5.6894 16.289 44.6269
536 2 0.0236791 7.18501 16.2579 6.09717
537 2 0.0261362 7.20655 6.03693 16.2848
538 2 0.0252899 7.20641 16.264 26.4282
539 2 0.0234671 7.17631 6.07901 36.5839
540 1 0.0423312 7.16627 16.2438 46.6635
541 2 0.0259535 5.74797 18.2902 6.09717
542 1 0.0484502 5.76084 8.11642 16.2511
543 2 0.0260748 5.7435 18.2293 26.4949
544 2 0.023854 5.71849 8.07898 36.5075
545 2 0.0210162 5.68212 18.3274 46.6936
546 2 0.0261229 7.17736 18.2655 8.13856
547 2 0.0220301 7.22503 8.09453 18.2851
548 2 0.0237176 7.2342 18.2849 28.4601
549 2 0.0222469 7.15997 8.19613 38.5389
550 2 0.0304746 7.20576 18.3206 48.5697
551 2 0.0326478 5.74797 8.12896 0
552 2 0.0298993 5.74053 18.2506 10.1705
553 2 0.0236642 5.83135 8.16277 20.3082
554 2 0.0245949 5.76821 18.3272 30.4407
555 1 0.044027 5.76991 8.10308 40.6445
556 2 0.0244676 7.18501 8.12896 2.03208
557 2 0.0247452 7.17189 18.318 12.2338
558 2 0.0259414 7.13642 8.1054 22.3717
559 2 0.0293608 7.1813 18.2537 32.4692
560 2 0.0235391 7.2377 8.15138 42.6644
561 1 0.0455174 5.74797 10.1612 2.03208
562 2 0.0245467 5.77748 0.00903888 12.1431
563 2 0.0264719 5.77235 10.1462 22.3687
564 2 0.026331 5.75572 20.315 32.5371
565 2 0.0179486 5.76182 10.1045 42.6404
566 2 0.0228239 7.18501 10.1612 4.06416
567 1 0.0418354 7.17102 0.017603 14.2618
568 2 0.0212455 7.12968 10.1204 24.4252
569 2 0.0268307 7.23478 0.0233291 34.5608
570 1 0.0426662 7.17088 10.1719 44.6987
571 2 0.0262701 5.74797 12.1934 4.06416
572 2 0.0240984 5.73996 2.10403 14.1928
573 2 0.0259665 5.79437 12.2029 24.3241
574 2 0.0220202 5.76406 2.00212 34.5459
575 2 0.0216704 5.77958 12.2324 44.7283
576 2 0.0242076 7.18501 12.1934 6.09717
577 1 0.0410383 7.17658 2.04167 16.2473
578 1 0.0432009 7.19977 12.2186 26.4053
579 2 0.0291208 7.1902 2.05541 36.6113
580 2 0.0215369 7.19046 12.2001 46.6711
581 2 0.0229626 5.74797 14.2257 6.09717
582 2 0.0247206 5.72731 4.07995 16.2409
583 2 0.0248721 5.67643 14.2936 26.4747
584 2 0.0256692 5.75139 4.09815 36.5931
585 2 0.0187249 5.7082 14.1656 46.7993
586 2 0.0257626 7.16618 14.1946 8.15918
587 1 0.0397627 7.20009 4.0547 18.2663
588 2 0.0230553 7.19315 14.1465 28.3839
589 2 0.025485 7.18921 4.02254 38.6451
590 2 0.0288481 7.26966 14.226 48.6013
591 2 0.0289887 5.76082 16.2575 8.12808
592 2 0.022192 5.69086 6.11584 18.2406
593 1 0.0447861 5.72481 16.2336 28.4337
594 2 0.0239248 5.80741 6.11326 38.6236
595 1 0.0538242 5.77697 16.2633 48.7432
596 1 0.0542201 7.18501 6.09672 0
597 2 0.0274101 7.24798 16.2433 10.1545
598 1 0.0428404 7.18459 6.075 20.2607
599 2 0.0229507 7.1525 16.2986 30.5286
600 2 0.0202618 7.16851 6.01607 40.6715
601 2 0.0216766 5.74797 6.09672 2.03208
602 2 0.0270705 5.76085 16.2362 12.1852
603 2 0.0265423 5.78226 6.06762 22.3685
604 2 0.0240302 5.69934 16.2293 32.6149
605 2 0.0209671 5.74149 6.19754 42.6513
606 2 0.0273055 7.18501 6.09672 4.06416
607 2 0.029155 7.14296 16.2377 14.2466
608 2 0.0269977 7.23341 6.16436 24.3771
609 2 0.0249478 7.26917 16.2419 34.5466
610 2 0.0199718 7.16368 6.08513 44.7209
611 2 0.0248979 5.74797 8.12896 4.06416
612 2 0.0266475 5.72074 18.2667 14.2283
613 2 0.0254223 5.63971 8.09081 24.3728
614 2 0.0293377 5.76559 18.2881 34.5217
615 1 0.037509 5.75283 8.14823 44.6389
616 1 0.0438316 7.18501 8.12896 6.09717
617 2 0.024971 7.18779 18.3006 16.2148
618 1 0.0459821 7.16179 8.11505 26.4218
619 2 0.0257423 7.18795 18.2876 36.5594
620 1 0.0392616 7.16566 8.13479 46.6909
621 2 0.0259607 5.74797 10.1612 6.09717
622 2 0.0234988 5.69028 0.0233988 16.3238
623 2 0.0225795 5.74381 10.1427 26.4371
624 2 0.029482 5.75149 0.00354084 36.543
625 2 0.0129833 5.76225 10.234 46.7616
626 2 0.0238914 7.15357 10.116 8.13247
627 2 0.023063 7.18119 0.0239807 18.3494
628 2 0.0258015 7.17455 10.215 28.4158
629 2 0.0239252 7.20323 0.0536789 38.6017
630 2 0.0318091 7.20218 10.0608 48.7154
631 2 0.0290829 5.74851 12.1597 8.12228
632 1 0.0412998 5.74175 2.03048 18.2656
633 2 0.0244639 5.71095 12.1871 28.4399
634 2 0.0259756 5.75488 2.03438 38.6715
635 1 0.0568188 5.72174 12.1725 48.7175
636 1 0.0528083 7.18501 2.03224 0
637 2 0.0275863 7.1947 12.1724 10.1448
638 1 0.0429893 7.19226 2.0609 20.2845
639 2 0.0222534 7.07208 12.1598 30.4685
640 2 0.0251397 7.22802 2.12196 40.6889
641 2 0.0284232 5.74797 4.06448 0
642 2 0.0269361 5.76514 14.2324 10.1989
643 1 0.0384012 5.72881 4.0723 20.3157
644 2 0.0229514 5.84415 14.2439 30.4347
645 2 0.0283539 5.70904 4.06722 40.626
646 2 0.0183331 7.18501 4.06448 2.03208
647 2 0.0272546 7.18504 14.1922 12.1909
648 2 0.0247321 7.27042 4.07016 22.3178
649 2 0.0218024 7.16804 14.2556 32.5104
650 1 0.0421546 7.15753 4.04664 42.6644
651 2 0.0262497 5.74797 4.06448 4.06416
652 2 0.0266947 5.70491 14.2409 14.2211
653 2 0.0306364 5.80672 4.094 24.3795
654 1 0.0475693 5.74707 14.2212 34.5483
655 2 0.0228023 5.75558 4.07976 44.7061
656 2 0.0227177 7.18501 4.06448 6.09717
657 2 0.0246685 7.154 14.247 16.257
658 2 0.0267653 7.14205 4.07745 26.4907
659 2 0.0266832 7.20367 14.232 36.5959
660 2 0.0211562 7.13939 4.01138 46.6795
661 2 0.0255227 5.74797 6.09672 6.09717
662 2 0.0257067 5.71835 16.2596 16.2413
663 2 0.0222018 5.73187 6.08798 26.352
664 2 0.0258237 5.781 16.2337 36.536
665 2 0.01862 5.7482 6.07899 46.7037
666 2 0.0235282 7.15575 6.18264 8.11318
667 1 0.0398804 7.14744 16.257 18.3056
668 1 0.0402519 7.17209 6.13254 28.4179
669 2 0.0262062 7.10306 16.2372 38.6314
670 2 0.0329546 7.19926 6.19369 48.6305
671 2 0.0275765 5.70232 8.13506 8.13598
672 2 0.0227381 5.77323 18.3333 18.2285
673 2 0.0216684 5.74902 8.19099 28.5417
674 2 0.022968 5.77918 18.3524 38.6274
675 2 0.0353462 5.71415 8.14066 48.7807
676 2 0.0353775 7.18501 18.2902 0
677 2 0.0233645 7.18148 8.13684 10.1258
678 1 0.0390635 7.15868 18.2774 20.3174
679 2 0.0237146 7.24345 8.16663 30.4567
680 2 0.0203293 7.21275 18.278 40.651
681 2 0.0313927 5.74797 0 0
682 2 0.0263756 5.71749 10.154 10.1849
683 2 0.0203802 5.70295 0.0131577 20.3125
684 2 0.0270391 5.70908 10.1285 30.4984
685 1 0.0483426 5.75052 0.0264771 40.6442
686 2 0.0234461 7.18501 0 2.03208
687 2 0.0224349 7.20745 10.1934 12.1669
688 2 0.0244595 7.17447 0.0588734 22.2196
689 2 0.0267341 7.14492 10.1543 32.4967
690 2 0.0198147 7.22408 0.0788537 42.6663
691 1 0.0409113 5.74797 2.03224 2.03208
692 2 0.0280462 5.74637 12.1983 12.1978
693 2 0.0267576 5.70975 2.08373 22.3186
694 2 0.0238153 5.80578 12.2115 32.5686
695 2 0.0211924 5.70632 1.95599 42.6451
696 2 0.0264536 7.18501 2.03224 4.06416
697 2 0.0251397 7.16956 12.2082 14.2465
698 2 0.0230732 7.16268 2.0818 24.352
699 2 0.0221483 7.18947 12.1118 34.6032
700 1 0.0420585 7.20563 2.02737 44.6677
701 2 0.024135 5.74797 2.03224 6.09717
702 2 0.029327 5.74404 12.2055 16.2648
703 2 0.0270963 5.75665 2.02984 26.4182
704 2 0.0252353 5.71788 12.2136 36.5387
705 2 0.021655 5.73445 2.01353 46.6733
706 1 0.0400525 7.22289 2.05443 8.16283
707 2 0.0261938 7.16548 12.2042 18.3172
708 2 0.0240625 7.15031 2.019 28.4571
709 2 0.0258966 7.20374 12.1524 38.5261
710 2 0.0328312 7.16553 1.98821 48.6563
711 1 0.0447359 5.77432 4.09348 8.14395
712 2 0.0230957 5.76098 14.2116 18.2555
713 2 0.0232626 5.69626 4.05015 28.4976
714 2 0.0234904 5.72168 14.1547 38.5799
715 2 0.0352225 5.79819 4.08921 48.6707
716 2 0.0361734 7.18501 14.2257 0
717 1 0.0344776 7.21101 4.06765 10.202
718 1 0.0412567 7.21531 14.2564 20.3269
719 2 0.0222044 7.22081 4.01954 30.4179
720 2 0.0237486 7.10707 14.2542 40.6022
721 2 0.0349937 5.74797 16.2579 0
722 2 0.0228761 5.71279 6.10923 10.1872
723 2 0.0160764 5.70703 16.2372 20.3625
724 1 0.0389637 5.81428 6.06722 30.5093
725 2 0.026264 5.77566 16.295 40.6844
726 2 0.0259182 7.18501 16.2579 2.03208
727 2 0.0210573 7.20506 6.05998 12.198
728 1 0.0411044 7.2301 16.2354 22.3225
729 2 0.0188488 7.22505 6.13273 32.5592
730 2 0.0251846 7.17379 16.2892 42.6848
731 2 0.0270249 5.74797 18.2902 2.03208
732 1 0.0488906 5.76223 8.14427 12.182
733 1 0.0397185 5.77097 18.2963 22.3582
734 2 0.0252168 5.75507 8.11021 32.5114
735 2 0.0256687 5.83468 18.3901 42.6807
736 2 0.0256891 7.18501 18.2902 4.06416
737 2 0.0201715 7.22997 8.06905 14.2056
738 2 0.0198671 7.14031 18.2695 24.4246
739 2 0.0258437 7.19939 8.19235 34.5798
740 2 0.0241501 7.18076 18.2321 44.7649
741 2 0.0256571 5.74797 0 4.06416
742 2 0.0242592 5.83834 10.0835 14.2181
743 2 0.0255146 5.82622 20.3194 24.3088
744 2 0.0271876 5.6984 10.1276 34.5243
745 1 0.0464379 5.7676 0.002841 44.7038
746 2 0.0256539 7.18501 0 6.09717
747 2 0.0242892 7.21011 10.1966 16.2753
748 2 0.0215209 7.12088 20.2951 26.4223
749 1 0.0467067 7.24795 10.1391 36.5521
750 2 0.0212313 7.29753 0.0608127 46.6756
751 2 0.02162 8.62336 20.2851 8.1046
752 2 0.0257789 8.59784 10.1524 18.3716
753 1 0.0445714 8.6851 0.0310316 28.405
754 2 0.0240686 8.62884 10.2114 38.7129
755 2 0.035452 8.64813 0.0209528 48.7563
756 1 0.0476656 10.0591 10.1612 0
757 2 0.0217918 10.067 20.2265 10.0828
758 2 0.0224518 10.0721 10.174 20.346