#Input file for lammps
 
1272 atoms
3 atom types
 
0.0 126.567 xlo xhi
0.0 126.567 ylo yhi
0.0 126.567 zlo zhi
 
Masses
 
1 12
2 14
3 1.008
 
Atoms
 
      1 1 0      74.2132      70.0579      82.0515
      2 1 0      74.1059       71.221      82.8227
      3 1 0      73.1563      72.2102       82.418
      4 2 0      72.3672      72.0987      81.3564
      5 3 0      74.9117       69.283      82.3124
      6 3 0      74.7224       71.368      83.6986
      7 3 0      73.0388      73.1328      82.9897
      8 1 0      73.4398      68.7724      80.0971
      9 1 0      73.3644      69.9287      80.9023
     10 1 0      72.4078      71.0097      80.5604
     11 2 0      71.6195      70.8771      79.4834
     12 3 0      74.1253      67.9801      80.3284
     13 1 0       72.627      67.5545      78.1465
     14 1 0      72.5836      68.6925      78.9771
     15 1 0      71.6434      69.8025      78.6779
     16 2 0      70.8409      69.7017      77.6081
     17 3 0      73.3014      66.7459      78.3515
     18 1 0      71.7678      66.3924      76.1819
     19 1 0      71.7576      67.5114      77.0389
     20 1 0      70.8345      68.6452      76.7792
     21 2 0       70.015      68.5834      75.7187
     22 3 0      72.4301      65.5675      76.3593
     23 1 0      70.8574       65.291      74.2013
     24 1 0       70.883      66.3887      75.0859
     25 1 0      69.9779      67.5459      74.8668
     26 2 0      69.1419      67.5257      73.8181
     27 3 0      71.5061      64.4497      74.3492
     28 1 0      69.8931      64.2548      72.2047
     29 1 0      69.9569      65.3285      73.1178
     30 1 0      69.0724      66.5095      72.9427
     31 2 0      68.2197      66.5339      71.9081
     32 3 0      70.5264      63.3971      72.3207
     33 1 0      68.8706      63.2911      70.1926
     34 1 0      68.9766      64.3367      71.1359
     35 1 0      68.1155       65.542      71.0086
     36 2 0       67.246      65.6151      69.9912
     37 3 0      69.4861      62.4164      70.2734
     38 1 0      67.7837      62.4113      68.1661
     39 1 0      67.9375      63.4223      69.1416
     40 1 0      67.1033      64.6522      69.0666
     41 2 0      66.2162      64.7808      68.0705
     42 3 0      68.3772      61.5186      68.2057
     43 1 0      66.6275      61.6296      66.1301
     44 1 0       66.833      62.5999      67.1379
     45 1 0      66.0296      63.8533      67.1193
     46 2 0      65.1249      64.0429      66.1487
     47 3 0      67.1948      60.7191      66.1237
     48 1 0      65.4039      60.9548       64.094
     49 1 0        65.66      61.8816      65.1306
     50 1 0      64.8908      63.1563      65.1706
     51 2 0      63.9705      63.4068      64.2282
     52 3 0      65.9438      60.0293      64.0419
     53 1 0      64.1194      60.3868      62.0656
     54 1 0      64.4224      61.2703      63.1264
     55 1 0      63.6897      62.5628      63.2254
     56 2 0      62.7569      62.8704       62.312
     57 3 0      64.6325      59.4496      61.9713
     58 1 0        62.78      59.9215      60.0491
     59 1 0      63.1273      60.7617       61.131
     60 1 0      62.4321      62.0687      61.2877
     61 2 0      61.4898        62.43      60.4041
     62 3 0      63.2664      58.9752      59.9148
     63 1 0      61.3892       59.557      58.0476
     64 1 0      61.7797      60.3525      59.1482
     65 1 0      61.1231       61.671      59.3614
     66 2 0      60.1734      62.0843      58.5091
     67 3 0      61.8481      58.6034      57.8736
     68 1 0      59.9498      59.2933      56.0641
     69 1 0      60.3831      60.0421      57.1813
     70 1 0      59.7661      61.3693      57.4503
     71 2 0       58.811      61.8339      56.6312
     72 3 0      60.3799      58.3343      55.8505
     73 1 0      58.4645      59.1309      54.1028
     74 1 0      58.9398      59.8314      55.2344
     75 1 0      58.3638      61.1644      55.5585
     76 2 0      57.4052      61.6795      54.7743
     77 3 0      58.8647      58.1687      53.8497
     78 1 0      56.9366      59.0704      52.1681
     79 1 0      57.4529      59.7211      53.3116
     80 1 0      56.9191      61.0573      53.6903
     81 2 0      55.9592      61.6219      52.9429
     82 3 0      57.3058      58.1069      51.8756
     83 1 0      55.3695      59.1118       50.264
     84 1 0      55.9254      59.7116      51.4169
     85 1 0      55.4353       61.048      51.8497
     86 2 0      54.4759      61.6612      51.1407
     87 3 0      55.7069      58.1492      49.9329
     88 1 0      53.7668      59.2551      48.3951
     89 1 0       54.361      59.8028      49.5548
     90 1 0      53.9154      61.1366      50.0407
     91 2 0      52.9588      61.7972       49.372
     92 3 0      54.0717      58.2954      48.0261
     93 1 0      52.1322      59.4998      46.5657
     94 1 0      52.7632      59.9946      47.7297
     95 1 0      52.3632      61.3231      48.2677
     96 2 0      51.4113      62.0298      47.6408
     97 3 0      52.4039      58.5451      46.1596
     98 1 0      50.4695      59.8454      44.7798
     99 1 0      51.1357      60.2864      45.9456
    100 1 0      50.7819      61.6067      46.5343
    101 2 0      49.8369      62.3582      45.9506
    102 3 0      50.7077      58.8978      44.3377
    103 1 0      49.4822      60.6776      44.2066
    104 1 0      49.1752      61.9869      44.8446
    105 3 0      48.9477      60.3706      43.3076
    106 3 0      48.4167      62.6429      44.4172
    107 1 0      87.5178      55.9234      16.4776
    108 1 0      88.9045       55.845      16.3043
    109 1 0      89.6888      55.3338      17.3848
    110 2 0      89.1879      54.9273      18.5451
    111 3 0      86.8825      56.3004      15.6961
    112 3 0      89.3697      56.1614       15.381
    113 3 0      90.7738      55.2547      17.2938
    114 1 0      85.5747      55.5482      17.9452
    115 1 0      86.9675      55.4864      17.7282
    116 1 0       87.862      54.9697      18.7929
    117 2 0      87.3354      54.5641      19.9579
    118 3 0       84.912      55.9187      17.1872
    119 1 0      83.6968      55.1512      19.4502
    120 1 0      85.0819      55.1063      19.1925
    121 1 0      86.0197      54.5976      20.2257
    122 2 0      85.5259       54.184       21.402
    123 3 0      83.0089      55.5163      18.7125
    124 1 0      81.8666      54.7291      21.0058
    125 1 0      83.2435      54.7018      20.7059
    126 1 0      84.2185      54.2014       21.708
    127 2 0       83.765      53.7783      22.8977
    128 3 0       81.153      55.0883      20.2901
    129 1 0      80.0877      54.2792      22.6176
    130 1 0      81.4548      54.2709      22.2726
    131 1 0       82.467      53.7795      23.2422
    132 2 0      82.0573      53.3469      24.4439
    133 3 0      79.3476      54.6318      21.9259
    134 1 0      78.3645      53.8002      24.2883
    135 1 0      79.7196      53.8122      23.8953
    136 1 0      80.7706      53.3309      24.8288
    137 2 0      80.4082      52.8888      26.0418
    138 3 0       77.597      54.1451      23.6233
    139 1 0      76.7041      53.2897      26.0218
    140 1 0      78.0437       53.324      25.5764
    141 1 0      79.1356      52.8544      26.4696
    142 2 0      78.8257      52.4027      27.6929
    143 3 0      75.9073      53.6256      25.3871
    144 1 0      75.1175      52.7441      27.8239
    145 1 0      76.4365      52.8038      27.3198
    146 1 0      77.5712      52.3477      28.1676
    147 2 0      77.3216      51.8857      29.4005
    148 3 0      74.2884       53.069      27.2257
    149 1 0      73.6201      52.1607      29.6975
    150 1 0      74.9127       52.248       29.131
    151 1 0      76.0906      51.8073       29.928
    152 2 0      75.9083      51.3351      31.1691
    153 3 0      72.7572      52.4724      29.1417
    154 1 0      72.2239      51.5403      31.6376
    155 1 0       73.486      51.6547      31.0108
    156 1 0      74.7058      51.2313      31.7531
    157 2 0      74.5915      50.7498      32.9992
    158 3 0      71.3297      51.8381      31.1252
    159 1 0      70.9313      50.8862      33.6348
    160 1 0      72.1616      51.0258       32.953
    161 1 0      73.4201      50.6209      33.6381
    162 2 0      73.3707      50.1318      34.8861
    163 3 0      70.0104      51.1704       33.164
    164 1 0      69.7404      50.2017      35.6816
    165 1 0      70.9375      50.3651      34.9488
    166 1 0      72.2314      49.9794       35.576
    167 2 0      72.2437      49.4843      36.8225
    168 3 0      68.7958      50.4723      35.2516
    169 1 0      68.6502      49.4887      37.7736
    170 1 0      69.8121      49.6753      36.9914
    171 1 0      71.1378      49.3093      37.5603
    172 2 0      71.2111      48.8094      38.8028
    173 3 0       67.684      49.7451       37.385
    174 1 0      67.6621      48.7484      39.9069
    175 1 0       68.786      48.9581      39.0767
    176 1 0      70.1407      48.6125      39.5864
    177 2 0      70.2748      48.1087      40.8222
    178 3 0      66.6761        48.99       39.561
    179 1 0       66.778      47.9824      42.0773
    180 1 0      67.8616      48.2148      41.2005
    181 1 0      69.2424      47.8903        41.65
    182 2 0      69.4371      47.3837      42.8767
    183 3 0      65.7742      48.2086      41.7752
    184 1 0           66      47.1924      44.2801
    185 1 0      67.0411      47.4469      43.3587
    186 1 0      68.4451      47.1442      43.7469
    187 2 0      68.7004       46.636      44.9615
    188 3 0      64.9804      47.4025      44.0226
    189 1 0      65.3298        46.38      46.5103
    190 1 0      66.3263      46.6561      45.5466
    191 1 0      67.7507       46.376      45.8723
    192 2 0      68.0662      45.8671      47.0725
    193 3 0      64.2966      46.5737      46.2981
    194 1 0      64.7691      45.5472      48.7628
    195 1 0      65.7188      45.8441      47.7589
    196 1 0      67.1606      45.5871      48.0216
    197 2 0      67.5359      45.0787      49.2046
    198 3 0      63.7245      45.7239      48.5963
    199 1 0      64.3189      44.6959      51.0325
    200 1 0      65.2202      45.0129      49.9908
    201 1 0      66.6763      44.7796      50.1898
    202 2 0      67.1108      44.2728       51.353
    203 3 0      63.2652      44.8553       50.912
    204 1 0      63.9803      43.8279      53.3141
    205 1 0      64.8315      44.1643       52.237
    206 1 0      66.2987      43.9551      52.3722
    207 2 0      66.7916       43.451      53.5131
    208 3 0      62.9199      43.9699      53.2396
    209 1 0      64.5534      43.3003      54.4926
    210 1 0      66.0287      43.1156       54.564
    211 3 0      63.9283      43.0295      55.3435
    212 3 0      66.4895      42.7099      55.4647
    213 1 0      16.2798       62.946      66.9686
    214 1 0      14.9348      62.9239      66.5819
    215 1 0      13.9832       62.366      67.4914
    216 2 0      14.2913      61.8658      68.6819
    217 3 0      17.0354      63.3545      66.3217
    218 3 0      14.6237       63.317      65.6239
    219 3 0      12.9236      62.3281      67.2314
    220 1 0      17.9662        62.41       68.683
    221 1 0      16.6221      62.4077      68.2535
    222 1 0      15.5641      61.8489      69.1303
    223 2 0      15.8968      61.3485      70.3294
    224 3 0      18.7451      62.8097       68.063
    225 1 0      19.5818      61.8518      70.4229
    226 1 0      18.2521      61.8689      69.9556
    227 1 0      17.1562      61.3216      70.7953
    228 2 0      17.4547      60.8135      72.0001
    229 3 0      20.3824       62.244      69.8263
    230 1 0      21.1422      61.2667      72.2036
    231 1 0      19.8274       61.304      71.6973
    232 1 0      18.6996      60.7683      72.5013
    233 2 0       18.956      60.2511      73.7124
    234 3 0      21.9647      61.6506      71.6322
    235 1 0      22.6425      60.6518        74.03
    236 1 0      21.3447      60.7107       73.482
    237 1 0      20.1855      60.1873       74.249
    238 2 0      20.3966      59.6613      75.4646
    239 3 0      23.4874      61.0265      73.4857
    240 1 0      24.0782      60.0056      75.9038
    241 1 0      22.8001      60.0876      75.3118
    242 1 0      21.6082       59.578       76.038
    243 2 0      21.7706      59.0433      77.2569
    244 3 0      24.9459        60.37      75.3894
    245 1 0      25.4416      59.3257      77.8277
    246 1 0      24.1872       59.433       77.188
    247 1 0      22.9615      58.9391      77.8691
    248 2 0      23.0702      58.3957      79.0896
    249 3 0      26.3334      59.6782       77.347
    250 1 0      26.7207      58.6085      79.8056
    251 1 0      25.4963      58.7446       79.113
    252 1 0      24.2355      58.2685      79.7439
    253 2 0      24.2829      57.7162      80.9639
    254 3 0      27.6386      58.9465       79.365
    255 1 0         27.9      57.8517      81.8377
    256 1 0      26.7118      58.0186      81.0895
    257 1 0      25.4165      57.5628       81.665
    258 2 0       25.396      57.0018      82.8821
    259 3 0      28.8444      58.1726      81.4431
    260 1 0      28.9683      57.0567      83.9174
    261 1 0      27.8201      57.2537      83.1163
    262 1 0      26.4921      56.8202      83.6326
    263 2 0      26.4034      56.2518      84.8438
    264 3 0      29.9367      57.3597      83.5693
    265 1 0      29.9247      56.2275      86.0352
    266 1 0      28.8169      56.4524      85.1866
    267 1 0      27.4598      56.0425       85.642
    268 2 0      27.3067      55.4685      86.8445
    269 3 0      30.9128      56.5133      85.7312
    270 1 0      30.7724      55.3679      88.1843
    271 1 0      29.7058      55.6189      87.2921
    272 1 0      28.3231      55.2332      87.6865
    273 2 0       28.109      54.6553      88.8779
    274 3 0      31.7774      55.6366      87.9231
    275 1 0      31.5131        54.48      90.3606
    276 1 0      30.4893      54.7564      89.4268
    277 1 0      29.0845      54.3953      89.7603
    278 2 0      28.8108      53.8148       90.938
    279 3 0      32.5327      54.7311      90.1426
    280 1 0      32.1461      53.5655      92.5603
    281 1 0      31.1676      53.8669      91.5864
    282 1 0      29.7437      53.5311      91.8586
    283 2 0      29.4108      52.9491      93.0204
    284 3 0      33.1784      53.7983      92.3862
    285 1 0        32.67       52.626      94.7789
    286 1 0       31.739       52.952      93.7669
    287 1 0       30.299      52.6421      93.9773
    288 2 0      29.9075        52.06      95.1206
    289 3 0      33.7129      52.8399      94.6495
    290 1 0      33.0835      51.6638      97.0115
    291 1 0       32.202      52.0136      95.9636
    292 1 0      30.7488      51.7304      96.1116
    293 2 0      30.2993      51.1493      97.2338
    294 3 0      34.1349      51.8582      96.9274
    295 1 0       33.386       50.681      99.2532
    296 1 0      32.5554      51.0536      98.1719
    297 1 0      31.0922      50.7978      98.2569
    298 2 0      30.5855       50.219      99.3556
    299 3 0      34.4434      50.8554      99.2147
    300 1 0      33.5764      49.6797      101.499
    301 1 0      32.7986      50.0743      100.387
    302 1 0      31.3284      49.8465      100.408
    303 2 0      30.7653      49.2712      101.481
    304 3 0      34.6377      49.8338      101.506
    305 1 0      33.6546      48.6624      103.743
    306 1 0      32.9308      49.0781      102.603
    307 1 0      31.4568      48.8786      102.561
    308 2 0      30.8382      48.3082      103.606
    309 3 0      34.7174      48.7958      103.796
    310 1 0      33.6203      47.6312      105.982
    311 1 0       32.952       48.067      104.815
    312 1 0      31.4773      47.8963      104.711
    313 2 0      30.8045      47.3319      105.724
    314 3 0      34.6824      47.7439      106.079
    315 1 0      32.8621      47.0435      107.018
    316 1 0      31.3897      46.9017      106.852
    317 3 0      33.3431      46.6957      107.933
    318 3 0      30.7875      46.4508      107.641
    319 1 0      122.894      81.6398      59.7985
    320 1 0      124.289      81.6202      59.6865
    321 1 0      125.035      82.5965       60.417
    322 2 0      124.492      83.5232      61.1969
    323 3 0      122.286      80.9275      59.2699
    324 3 0      124.788      80.8889      59.0662
    325 3 0      126.125      82.6185      60.3594
    326 1 0      120.895      82.6932      60.7805
    327 1 0      122.297      82.6377      60.6391
    328 1 0      123.155      83.6107      61.3593
    329 2 0      122.585       84.539      62.1422
    330 3 0      120.258      81.9982      60.2676
    331 1 0      118.959      83.7839      61.7879
    332 1 0      120.356      83.6936       61.619
    333 1 0      121.258      84.6441      62.3182
    334 2 0      120.721      85.5849      63.1089
    335 3 0      118.297      83.1036      61.2886
    336 1 0       117.07      84.9214      62.8295
    337 1 0       118.46      84.7949      62.6322
    338 1 0        119.4      85.7228      63.3106
    339 2 0      118.903      86.6784      64.1104
    340 3 0      116.381      84.2572       62.345
    341 1 0       115.23      86.1106      63.9092
    342 1 0      116.612      85.9454      63.6815
    343 1 0      117.591      86.8494      64.3381
    344 2 0      117.137       87.819      65.1461
    345 3 0      114.514      85.4641      63.4408
    346 1 0      113.444      87.3541      65.0288
    347 1 0      114.816      87.1477      64.7686
    348 1 0      115.835      88.0249       65.401
    349 2 0      115.428      89.0083      66.2169
    350 3 0        112.7      86.7274      64.5782
    351 1 0      111.719      88.6559      66.1908
    352 1 0      113.077      88.4042      65.8953
    353 1 0      114.138      89.2514      66.5007
    354 2 0      113.783      90.2482      67.3237
    355 3 0      110.944       88.052      65.7605
    356 1 0      110.065       90.022      67.3993
    357 1 0      111.404      89.7192      67.0643
    358 1 0       112.51      90.5322      67.6392
    359 2 0      112.215      91.5425      68.4688
    360 3 0      109.256      89.4457      66.9935
    361 1 0      108.497       91.456      68.6563
    362 1 0      109.812      91.0985      68.2791
    363 1 0      110.963      91.8729        68.82
    364 2 0      110.736      92.8962      69.6553
    365 3 0      107.653      90.9122       68.279
    366 1 0      107.029      92.9548      69.9584
    367 1 0      108.316       92.544      69.5405
    368 1 0       109.51      93.2764      70.0446
    369 2 0      109.351      94.3101      70.8836
    370 3 0      106.152      92.4446      69.6102
    371 1 0      105.662      94.5109      71.2993
    372 1 0      106.919      94.0512      70.8443
    373 1 0      108.155      94.7392        71.31
    374 2 0       108.06      95.7802      72.1505
    375 3 0      104.757      94.0331      70.9791
    376 1 0      104.396      96.1178       72.674
    377 1 0      105.621      95.6123      72.1844
    378 1 0      106.894       96.255      72.6114
    379 2 0      106.862      97.3005      73.4511
    380 3 0      103.465       95.672      72.3812
    381 1 0      103.228      97.7717      74.0795
    382 1 0       104.42      97.2216      73.5566
    383 1 0      105.727      97.8183      73.9443
    384 2 0      105.756      98.8659      74.7815
    385 3 0      102.275      97.3586      73.8145
    386 1 0      102.161      99.4694      75.5131
    387 1 0      103.317      98.8756      74.9577
    388 1 0      104.655      99.4254      75.3057
    389 2 0      104.745      100.473      76.1386
    390 3 0      101.186      99.0903      75.2768
    391 1 0      101.198      101.208      76.9722
    392 1 0      102.315      100.571      76.3852
    393 1 0      103.681      101.073      76.6927
    394 2 0      103.832      102.118      77.5196
    395 3 0      100.203      100.864      76.7652
    396 1 0      100.339      102.983      78.4533
    397 1 0      101.415      102.305      77.8362
    398 1 0      102.807      102.757      78.1024
    399 2 0      103.019      103.798      78.9215
    400 3 0      99.3271      102.674      78.2764
    401 1 0      99.5872       104.79      79.9533
    402 1 0       100.62      104.073      79.3075
    403 1 0      102.035      104.475      79.5317
    404 2 0      102.307      105.509      80.3413
    405 3 0      98.5601      104.519      79.8068
    406 1 0      98.9443      106.627      81.4687
    407 1 0      99.9317      105.872      80.7957
    408 1 0      101.366      106.222      80.9775
    409 2 0      101.699      107.247      81.7757
    410 3 0      97.9041      106.392       81.353
    411 1 0      98.4114      108.487       82.996
    412 1 0      99.3517      107.696      82.2974
    413 1 0      100.803      107.995      82.4364
    414 2 0      101.196      109.009      83.2214
    415 3 0      97.3605      108.291      82.9113
    416 1 0      97.9899      110.368      84.5318
    417 1 0      98.8812      109.543      83.8092
    418 1 0      100.346      109.789      83.9052
    419 2 0      100.798      110.789      84.6754
    420 3 0      96.9306       110.21       84.478
    421 1 0      98.5212      111.407      85.3276
    422 1 0      99.9962      111.601      85.3807
    423 3 0      97.8645      112.064      85.8987
    424 3 0      100.425      112.397       85.989
    425 1 0      28.3549      52.3137      2.86189
    426 1 0      27.9062      52.7221      1.60051
    427 1 0      26.6421       53.385      1.51921
    428 2 0      25.8632      53.6398      2.56356
    429 3 0      29.2985      51.8111        2.978
    430 3 0      28.4974      52.5421     0.713351
    431 3 0      26.2529      53.7209     0.556153
    432 1 0      27.9336      52.1903      5.28627
    433 1 0      27.5197      52.5848       3.9963
    434 1 0      26.2218      53.2794      3.81369
    435 2 0      25.4498      53.5272      4.88216
    436 3 0      28.8688       51.687       5.4381
    437 1 0      27.4521      52.1028      7.67572
    438 1 0      27.0765      52.4798      6.37043
    439 1 0      25.7869      53.1775       6.1344
    440 2 0      24.9911      53.4406      7.18145
    441 3 0      28.3807      51.5984      7.85971
    442 1 0      26.9067      52.0501      10.0522
    443 1 0      26.5708      52.4088      8.73122
    444 1 0      25.2918      53.1078      8.44716
    445 2 0      24.4673      53.3895      9.46731
    446 3 0      27.8276      51.5449      10.2697
    447 1 0       26.291      52.0354      12.4156
    448 1 0       25.998      52.3742      11.0786
    449 1 0      24.7309       53.074      10.7458
    450 2 0      23.8772       53.375      11.7355
    451 3 0      27.2027      51.5301      12.6682
    452 1 0      25.6009      52.0613      14.7636
    453 1 0      25.3542      52.3784       13.411
    454 1 0      24.1013      53.0782      13.0261
    455 2 0      23.2175      53.3994       13.982
    456 3 0      26.5016      51.5563      15.0536
    457 1 0      24.8299      52.1315      17.0924
    458 1 0      24.6348      52.4242      15.7247
    459 1 0      23.3989      53.1231      15.2838
    460 2 0      22.4836       53.466       16.201
    461 3 0      25.7172      51.6277      17.4233
    462 1 0      23.9683       52.252      19.3957
    463 1 0      23.8323      52.5162       18.014
    464 1 0      22.6169       53.213      17.5127
    465 2 0      21.6674      53.5799      18.3842
    466 3 0      24.8382      51.7506      19.7735
    467 1 0      23.0069      52.4291      21.6623
    468 1 0      22.9359      52.6614      20.2693
    469 1 0      21.7453      53.3543      19.7044
    470 2 0      20.7599      53.7471      20.5236
    471 3 0       23.855      51.9317      22.0913
    472 1 0      21.9451      52.6649      23.8793
    473 1 0      21.9388      52.8648      22.4797
    474 1 0      20.7772      53.5519        21.85
    475 2 0      19.7581      53.9697      22.6146
    476 3 0      22.7694      52.1729       24.358
    477 1 0      20.7896       52.957      26.0396
    478 1 0      20.8441      53.1259      24.6373
    479 1 0      19.7148      53.8052      23.9443
    480 2 0      18.6662      54.2458      24.6553
    481 3 0      21.5897      52.4711      26.5631
    482 1 0      19.5477      53.3019      28.1408
    483 1 0      19.6604      53.4407      26.7391
    484 1 0      18.5655      54.1109      25.9853
    485 2 0      17.4915      54.5719      26.6435
    486 3 0      20.3231      52.8229      28.7061
    487 1 0      18.2238      53.6976      30.1814
    488 1 0      18.3939      53.8063      28.7829
    489 1 0      17.3353       54.466       27.971
    490 2 0      16.2386      54.9462      28.5757
    491 3 0       18.973      53.2264      30.7871
    492 1 0      16.8205      54.1431      32.1582
    493 1 0      17.0482      54.2213      30.7659
    494 1 0      16.0278      54.8692      29.8978
    495 2 0      14.9106      55.3677      30.4477
    496 3 0      17.5417      53.6808      32.8035
    497 1 0      15.3405      54.6377      34.0672
    498 1 0      15.6255      54.6851      32.6839
    499 1 0      14.6455      55.3198      31.7615
    500 2 0      13.5101      55.8356      32.2554
    501 3 0      16.0319      54.1853       34.751
    502 1 0      13.7872      55.1802      35.9041
    503 1 0      14.1288      55.1968      34.5328
    504 1 0      13.1913      55.8169       33.558
    505 2 0        12.04      56.3489      33.9943
    506 3 0       14.447      54.7389      36.6252
    507 1 0      12.1639      55.7695       37.665
    508 1 0       12.561      55.7554      36.3085
    509 1 0      11.6683      56.3595       35.283
    510 2 0      10.5035      56.9067      35.6609
    511 3 0      12.7908      55.3401      38.4218
    512 1 0      10.4743      56.4042      39.3456
    513 1 0      10.9259      56.3595      38.0069
    514 1 0      10.0798      56.9464       36.933
    515 2 0      8.90403      57.5077      37.2512
    516 3 0      11.0669      55.9877      40.1365
    517 1 0      8.72246      57.0828      40.9422
    518 1 0      9.22733      57.0077      39.6241
    519 1 0      8.42958      57.5762      38.5039
    520 2 0       7.2453      58.1504      38.7617
    521 3 0      9.27952      56.6801      41.7654
    522 1 0      6.91225      57.8038      42.4512
    523 1 0      7.46906      57.6987      41.1564
    524 1 0      6.72123      58.2476      39.9926
    525 2 0      5.53097      58.8334      40.1892
    526 3 0      7.43283      57.4156      43.3047
    527 1 0      5.65518      58.4307      42.6004
    528 1 0      4.95857      58.9589      41.3957
    529 3 0      5.19484      58.5298      43.5835
    530 3 0      3.98797      59.4458      41.4905
    531 1 0      117.253      4.51959      59.7961
    532 1 0      118.362      5.36933      59.8741
    533 1 0      118.317      6.44986      60.8092
    534 2 0      117.289      6.70172      61.6108
    535 3 0      117.236      3.69207      59.1095
    536 3 0      119.229        5.214      59.2463
    537 3 0       119.16      7.13738      60.9039
    538 1 0      114.999       3.9524      60.6127
    539 1 0      116.138      4.78408      60.6586
    540 1 0      116.181      5.93104      61.5983
    541 2 0      115.132      6.16794      62.3997
    542 3 0      114.949      3.11831      59.9398
    543 1 0      112.771      3.44841      61.4674
    544 1 0      113.927       4.2541      61.4814
    545 1 0       114.02      5.41435      62.4038
    546 2 0      112.989      5.67913      63.2187
    547 3 0      112.691      2.60763      60.8061
    548 1 0      110.548      3.00242      62.3676
    549 1 0      111.723      3.78105      62.3485
    550 1 0      111.861      4.95065       63.253
    551 2 0      110.851      5.24952       64.084
    552 3 0      110.437      2.15539       61.719
    553 1 0      108.331      2.61973       63.318
    554 1 0      109.525      3.36879      63.2633
    555 1 0      109.708      4.54697      64.1488
    556 2 0      108.723      4.88157      64.9955
    557 3 0      108.187      1.76703      62.6836
    558 1 0      106.121      2.30467      64.3213
    559 1 0      107.333      3.02117      64.2285
    560 1 0      107.566      4.20726      65.0926
    561 2 0      106.609      4.57965       65.955
    562 3 0      105.942      1.44699      63.7029
    563 1 0      103.921      2.06403      65.3815
    564 1 0      105.152      2.74345      65.2468
    565 1 0      105.437      3.93662      66.0865
    566 2 0      104.513      4.34978      66.9646
    567 3 0      103.703      1.20202      64.7816
    568 1 0      101.736      1.90833      66.5048
    569 1 0      102.985      2.54389      66.3225
    570 1 0      103.327      3.74289      67.1344
    571 2 0      102.441      4.20176      68.0289
    572 3 0      101.473      1.04301      65.9276
    573 1 0      99.5742      1.84934      67.6955
    574 1 0       100.84      2.43521      67.4621
    575 1 0      101.243      3.63763      68.2421
    576 2 0      100.401      4.14609      69.1529
    577 3 0      99.2628     0.982715      67.1453
    578 1 0      97.4485      1.89253      68.9517
    579 1 0      98.7264      2.42714      68.6681
    580 1 0      99.1912      3.63003      69.4131
    581 2 0      98.3962      4.18713       70.338
    582 3 0      97.0896      1.02692      68.4297
    583 1 0      95.3659      2.03499      70.2668
    584 1 0      96.6518      2.52008      69.9368
    585 1 0      97.1776      3.72009      70.6444