ITEM: TIMESTEP
3352000
ITEM: NUMBER OF ATOMS
1272
ITEM: BOX BOUNDS pp pp ff
4.8000000000000000e+01 7.8566900000000004e+01
4.8000000000000000e+01 7.8566900000000004e+01
5.5500000000000000e+01 7.1066900000000004e+01
ITEM: ATOMS id type x y z
1178 3 53.3954 52.0122 56.717
810 1 52.5559 52.6244 59.4453
812 1 50.2064 52.8216 60.2515
814 3 53.3884 53.1045 59.0241
811 1 51.4748 53.4254 59.8119
1183 3 51.5444 53.5437 56.8945
808 2 49.2408 53.6437 60.6816
805 1 51.7358 54.826 59.7813
1174 1 54.0479 52.8416 56.598
813 2 50.084 51.4684 60.3672
807 1 49.3749 55.0178 60.7874
809 3 52.6471 55.3334 59.4652
816 1 52.3671 51.218 59.4889
819 3 54.2253 50.782 58.4869
817 1 51.0765 50.6512 60.0865
815 1 53.3283 50.4096 58.9109
110 2 51.2838 49.4879 56.1888
1180 1 53.6141 54.2134 56.5637
1179 1 52.2255 54.3571 56.7797
358 1 55.2057 49.7951 61.732
359 2 55.297 51.1375 61.8102
109 1 51.6748 48.2457 56.0721
363 1 54.2743 51.8832 62.2414
116 1 49.9358 49.7913 56.1537
117 2 49.5574 51.068 56.297
818 2 50.9389 49.3409 60.0585
357 1 53.9871 49.0719 62.0784
806 1 50.6764 55.5514 60.3277
364 2 54.2627 53.246 62.2942
684 1 48.9647 48.8697 62.4094
115 1 48.924 48.7426 55.9305
362 1 53.0375 51.188 62.6319
356 1 52.8603 49.7751 62.5707
1171 3 55.3441 50.4902 56.1784
1175 1 55.4743 52.6344 56.4531
821 1 53.0206 48.9956 58.8452
1188 3 49.7132 55.1805 57.2066
1181 1 54.61 55.3317 56.3227
368 1 53.2537 53.9709 62.718
369 2 53.2451 55.3263 62.7677
688 3 48.5628 48.9349 61.4456
121 1 48.2907 51.4168 56.2761
822 1 51.7932 48.4222 59.5913
824 3 54.9346 48.4499 57.9899
602 3 48.2045 49.4814 58.4864
360 3 51.9411 49.3234 62.7705
679 1 48.2356 51.1128 62.8416
820 1 53.9692 48.1299 58.3206
113 3 52.7709 48.1486 56.2432
361 1 51.8933 51.8734 63.094
367 1 51.9739 53.2786 63.1249
1177 2 55.8936 55.0493 56.251
1074 1 59.6731 48.2452 59.4001
1167 1 55.9994 51.3081 56.2521
354 2 56.1089 48.9416 61.1824
193 3 58.8361 48.4436 62.7909
231 1 63.0022 51.8784 58.6043
1077 3 60.4211 49.2552 61.1965
1076 2 57.9783 49.4404 58.0997
1073 1 59.7925 49.3026 60.3407
1176 1 56.4002 53.8173 56.3326
1168 1 57.3787 51.1959 56.0301
1172 3 57.7749 50.2116 55.8093
1170 2 57.7199 53.5897 56.2778
1169 1 58.2027 52.3775 56.1439
1079 1 58.9696 50.393 60.1276
1086 2 56.442 53.6065 59.4469
227 1 62.2491 49.5316 57.3498
1173 3 59.2585 52.2842 55.9293
1081 2 57.2003 51.4858 58.8028
1078 1 58.9065 51.3981 61.1251
1082 3 59.5462 51.4089 61.9667
1085 1 57.0886 52.4752 59.704
1084 1 57.9609 52.3817 60.9375
228 2 61.3577 50.4942 57.5572
1083 1 57.8995 53.4094 61.8886
1087 3 58.5782 53.4789 62.7323
223 2 61.9144 48.3988 56.707
1080 1 58.0152 50.4591 58.9936
232 1 61.6214 51.6381 58.2004
233 2 60.6442 52.497 58.6246
1089 1 57.1534 54.5685 61.5532
1090 1 56.4193 54.663 60.2669
66 2 62.1305 51.7879 62.0035
237 1 60.9333 53.6422 59.2377
236 1 62.3577 53.9967 59.5075
65 1 62.2784 52.9891 62.6302
61 2 61.2529 53.7721 62.8542
238 2 60.0269 54.5476 59.666
235 1 62.7061 55.1766 60.2173
1088 1 56.99 55.6361 62.4498
71 2 62.9623 49.7438 61.148
1075 1 58.6923 48.303 58.2847
70 1 63.1488 50.932 61.7388
373 1 52.2121 56.0698 63.2011
803 2 48.3474 55.7455 61.1538
1185 1 51.7554 55.7066 56.7657
1184 1 50.4006 55.9848 57.0769
800 1 50.7482 56.9441 60.2055
802 1 48.3907 57.0792 61.1701
804 3 51.6396 57.5248 59.8966
1182 2 54.044 56.544 56.2314
1189 1 48.702 57.6726 57.4335
1197 2 49.1207 61.3705 57.2848
1196 1 49.3947 60.0611 57.1498
1186 1 52.723 56.7878 56.4085
801 1 49.6405 57.7204 60.656
795 1 49.7806 59.1131 60.5422
799 3 50.6803 59.5253 60.0626
796 1 48.7137 59.8707 61.1389
794 3 49.9228 61.6386 60.9039
1187 2 52.2789 58.0398 56.3982
1101 2 53.6828 59.9316 60.9875
1191 1 51.0144 58.3763 56.7085
1105 1 53.4542 60.994 61.8112
1192 2 50.6266 59.6694 56.7762
790 1 48.9475 61.2426 61.1602
1106 2 52.7594 62.0788 61.4594
1100 1 54.4034 58.8532 61.3209
1096 2 54.7237 57.8809 60.5048
1190 1 50.0152 57.3327 57.0553
1110 1 52.5016 63.1509 62.2527
728 3 54.8705 61.6116 58.5666
1099 1 55.0718 58.7991 62.6568
1095 1 55.5422 56.8223 60.7815
1195 1 48.4045 59.0325 57.5742
374 2 52.2735 57.4335 63.2297
1104 1 54.0643 60.9478 63.1472
636 3 50.4168 63.2275 59.0599
737 2 60.521 59.1001 58.4074
1091 2 55.7258 55.7762 59.9451
735 1 58.1298 59.1724 58.2583
251 1 60.1328 60.147 62.5638
513 1 62.6202 61.9521 59.8417
242 1 60.3199 55.6505 60.3214
725 1 55.8289 63.2592 59.4692
243 2 59.3609 56.591 60.6427
724 1 55.8278 61.9458 58.9825
507 1 61.6259 62.4991 60.6867
1094 1 56.2004 56.7646 62.0907
738 3 57.1471 57.3445 57.5818
248 2 58.5563 58.6107 61.5791
246 1 60.9253 58.0887 61.7094
240 1 61.9682 57.2282 61.3524
730 1 56.9572 61.1358 58.9726
241 1 61.6934 56.0875 60.5825
512 1 62.7263 60.5503 59.8694
734 1 58.0891 57.7774 57.7789
727 2 58.2674 63.006 59.9104
257 1 57.8398 61.8083 63.1138
245 1 61.2148 59.3036 62.3866
1093 1 55.9376 57.7315 63.0567
252 1 58.7067 59.8011 62.1965
740 1 60.4855 57.9104 57.9108
244 3 62.9743 57.6221 61.4698
249 3 62.1657 59.5523 62.7503
511 3 61.0444 61.8894 61.2932
739 1 59.2993 57.1499 57.6161
516 3 62.2168 59.9391 60.5487
247 1 59.5125 57.7293 61.3152
729 1 56.898 59.8421 58.416
253 2 57.725 60.6035 62.5118
742 3 61.4218 57.4917 57.5727
731 1 58.2142 61.7772 59.407
741 3 59.3401 56.1689 57.1339
736 1 59.3883 59.805 58.6138
732 2 59.3239 61.0442 59.1922
733 3 55.9703 59.3277 58.3776
521 3 63.108 57.9895 59.4455
949 2 53.3702 53.3653 70.1775
458 1 51.9067 54.2725 67.0283
457 1 51.7946 52.8802 67.2149
461 3 50.9353 52.5047 67.7817
463 1 52.7211 52.0275 66.6063
464 1 53.95 52.6895 66.0361
460 2 54.0878 54.0268 66.0203
456 3 49.9799 54.5194 67.9484
459 1 53.1422 54.8556 66.4227
452 1 50.8412 55.022 67.5447
681 1 48.644 52.0387 65.1733
299 3 52.1841 49.7816 70.2422
295 1 51.3772 49.4934 69.5861
677 2 48.3214 53.0482 66.0309
296 1 51.3713 48.2083 69.0083
952 1 53.1645 54.6935 70.1668
304 3 50.9347 51.9117 70.6119
462 1 52.5685 50.6226 66.7781
466 3 51.6552 50.22 67.1062
682 2 49.2838 50.9764 65.5358
686 1 49.4889 49.9019 64.6925
468 1 53.6465 49.9146 66.2078
948 1 54.3407 52.7061 69.5337
944 2 54.4645 51.3557 69.5941
469 1 54.776 50.5496 65.4615
465 2 54.8766 51.8694 65.4788
301 1 50.1602 50.1946 69.4806
300 1 50.1118 51.4746 70.0695
298 2 49.1286 48.4133 68.2082
302 1 48.9775 49.6227 68.748
467 1 53.4869 48.5427 66.1851
947 1 55.25 53.607 68.7653
309 3 49.6448 54.0119 70.8612
685 1 48.8974 49.9429 63.352
943 1 55.4659 50.7538 68.9643
306 1 48.933 52.2069 69.856
305 1 48.8724 53.5043 70.3825
687 2 50.2312 48.8442 64.9913
946 1 55.0385 54.9924 68.6757
370 3 50.0141 53.4994 63.8658
366 1 50.908 53.9737 63.6734
372 1 50.9841 55.4076 63.649
954 3 52.3116 55.0345 70.734
375 3 48.9813 55.5436 64.3617
939 2 55.577 49.4336 68.8689
951 1 53.9753 55.5769 69.4123
474 1 55.5746 48.4278 64.7241
470 2 55.6222 49.7501 64.7846
680 1 48.1491 52.1595 63.7452
471 3 52.694 48.0108 66.6623
365 3 50.9566 51.3241 63.3849
198 3 57.9048 50.7362 63.3906
59 1 62.7938 55.4836 63.8643
941 1 56.3661 53.0211 68.1312
942 1 56.4437 51.594 68.1781
936 1 57.5178 50.9701 67.4999
945 3 57.0284 53.6072 67.5441
940 3 58.272 51.5234 67.0058
956 1 59.6119 51.7325 69.9071
960 3 58.9185 52.5064 70.3922
957 1 60.5988 52.0988 68.9718
192 2 62.2425 49.3444 64.4404
961 3 60.8557 53.1556 68.817
958 2 61.3635 51.2517 68.2467
195 1 59.9138 49.9107 63.9702
196 1 61.2716 50.2011 64.5214
955 1 59.4199 50.3823 70.141
194 1 58.8403 50.8758 63.9074
197 2 61.4031 51.3799 65.1998
964 1 61.258 49.9469 68.4347
200 1 59.0862 51.9803 64.7323
201 1 60.4115 52.2157 65.418
937 1 57.5341 49.5645 67.4509
191 1 62.2045 48.1019 63.8356
959 3 58.7686 50.0841 70.899
935 3 59.2403 49.3692 66.1358
199 1 58.0266 52.9 64.8921
202 2 60.5157 53.3138 66.1988
203 3 57.116 52.8828 64.3079
963 1 60.2114 49.4314 69.37
965 2 62.069 49.044 67.8425
938 1 56.4687 48.7553 68.1962
931 1 58.5029 48.846 66.7307
206 1 59.544 54.2051 66.3624
205 1 58.219 54.0669 65.6927
204 1 57.2188 55.0551 65.6596
208 3 56.3851 54.9947 65.0321
1263 3 62.9516 55.1454 67.8945
207 2 59.6652 55.3251 67.1084
950 3 55.7253 55.6015 68.1211
60 1 61.4209 54.949 63.5087
1092 3 57.4697 55.5414 63.4237
189 1 59.7326 48.673 63.2972
962 1 60.0154 48.0413 69.5635
1098 1 54.8768 59.8652 63.5843
1109 1 53.118 63.0904 63.6055
380 3 48.0819 57.7687 65.1
388 1 49.3307 62.4705 64.4771
446 3 48.3592 59.185 69.1468
376 1 48.9012 58.2182 64.5937
455 2 53.1812 56.2118 66.3351
953 3 53.7366 56.6402 69.3419
453 1 51.0029 56.4208 67.5065
454 1 52.1994 56.998 66.842
451 3 49.0059 56.7063 68.3742
1107 3 54.2477 61.9177 65.1218
371 1 49.8801 56.1071 64.0803
447 1 49.9223 57.2045 67.9676
450 2 52.2528 58.3437 66.7966
377 1 50.0195 57.5163 64.1211
448 1 50.0617 58.6079 67.8597
442 1 49.1442 59.4924 68.4759
449 1 51.3228 59.1227 67.282
443 1 49.2862 60.8744 68.2024
445 2 51.4479 60.4955 67.2129
444 1 50.5167 61.3672 67.5333
383 1 50.2782 60.3067 64.0106
378 1 51.1978 58.1722 63.5461
379 2 51.2375 59.5397 63.5238
382 1 49.0648 59.6197 64.5931
440 2 50.6786 62.7088 67.3495
1103 1 53.8237 61.9411 64.095
384 2 50.2772 61.6352 63.9928
1102 3 55.31 59.8936 64.5353
437 1 48.288 61.7764 68.6277
387 1 48.1644 61.8053 65.103
314 3 48.2942 56.0118 71.0501
438 1 48.5667 63.1505 68.4417
381 1 48.041 60.4016 65.1708
258 2 56.8437 62.6958 63.3606
212 3 59.0167 57.1144 67.7667
56 2 60.4618 55.7903 63.7868
43 1 60.7337 60.6382 66.3622
45 1 58.2628 60.6772 66.1313
209 1 57.3939 56.1548 66.5338
46 2 58.2753 59.5426 65.4621
48 1 61.9718 58.7992 65.3436
40 1 57.0815 62.5221 66.9941
256 1 59.2037 62.1675 63.4936
42 3 60.519 62.8729 67.7704
38 1 59.5753 62.4688 67.3941
54 1 61.8679 57.5371 64.7025
44 1 59.5296 61.3104 66.6325
210 1 58.6639 56.2415 67.1898
47 3 61.6745 61.1734 66.629
51 2 59.3735 57.6636 64.664
36 2 55.9173 63.2331 67.1053
254 3 61.271 61.417 63.7638
39 1 58.3408 63.1039 67.5265
1268 3 62.259 57.558 68.0097
1097 3 56.4958 57.7494 63.9817
41 2 57.1259 61.369 66.3512
52 3 62.9342 59.176 65.5936
49 1 60.7551 59.385 65.7079
211 3 56.6866 56.91 66.6298
55 1 60.5242 56.9751 64.4138
53 1 63.029 56.7461 64.4548
50 1 59.3965 58.7948 65.3043
1271 3 62.9425 59.9811 68.3151
1264 1 63.2121 57.897 67.745
250 1 60.3131 61.2884 63.3359
713 3 51.8576 67.9291 60.214
630 1 49.7907 66.5419 58.6329
629 1 50.9547 66.8554 57.7721
1116 2 50.8154 66.2958 62.2454
709 1 52.6667 68.1728 60.8249
623 1 51.1753 68.2462 57.4627
715 1 53.7802 67.336 60.908
632 3 52.6793 65.9642 56.7631
628 1 51.815 65.8014 57.331
631 2 49.6529 65.2379 59.0193
710 1 52.8115 69.4369 61.4161
708 3 51.0032 70.1985 60.5381
704 1 51.7875 70.366 61.1703
627 3 51.9718 68.4846 56.8098
843 2 54.3291 68.8435 58.2054
842 1 54.5567 70.1607 58.056
626 2 49.0229 67.4949 59.1026
625 1 49.2321 68.8202 58.8521
711 1 53.9801 69.7813 62.2791
624 1 50.3691 69.2568 58.0168
1121 2 50.0014 68.4903 62.5425
714 1 53.6631 66.1163 60.1912
718 3 52.7319 65.8511 59.671
720 1 54.7545 65.2629 60.201
633 1 51.645 64.4929 57.8265
634 1 50.4715 64.2606 58.6316
1115 1 51.5107 65.2744 62.6348
848 3 54.8459 66.9611 57.8898
716 1 54.9684 67.6771 61.6967
712 2 54.9776 68.8516 62.3492
1126 2 48.8647 70.5802 62.782
635 3 52.3481 63.7687 57.4994
1111 2 51.7796 64.1778 61.8736
719 1 54.6638 64.0402 59.4783
846 1 55.1892 67.9272 57.7132
621 2 48.4013 69.7393 59.3436
1120 1 50.6109 67.3982 62.9998
789 3 49.1094 63.7971 61.3165
1125 1 49.6319 69.6064 63.214
618 1 50.5149 70.593 57.646
723 3 53.7131 63.6855 59.1509
785 1 48.1433 63.3808 61.6369
707 2 53.9392 70.9123 62.9307
1060 3 48.2739 70.7552 55.5141
622 3 51.3272 70.8729 57.0544
841 1 55.8034 70.5489 57.3361
509 1 62.4323 64.719 59.8628
722 2 57.083 64.8662 60.7433
845 1 56.2881 68.218 56.9141
717 2 56.0114 66.8154 61.5714
847 3 56.8174 67.3051 56.5305
323 3 59.047 65.0302 58.1234
320 1 60.929 65.1941 57.1964
504 1 61.4257 66.6712 60.7982
319 1 59.8025 65.7503 57.7858
327 1 59.7661 67.1744 57.9862
498 1 59.506 67.9397 62.456
499 1 60.4519 68.7204 61.6152
500 2 61.3136 68.0331 60.8506
330 3 57.8279 67.1942 59.0576
326 1 58.6501 67.7439 58.5959
840 1 56.6306 69.5527 56.7385
844 3 57.4778 69.8846 56.1545
495 2 60.4384 70.0667 61.6836
497 1 59.4908 66.5288 62.3681
328 1 60.866 68.0312 57.4628
322 2 61.8568 67.4175 56.7884
321 1 61.9074 66.0834 56.6224
503 1 60.4514 65.8534 61.58
721 1 56.0112 65.6727 60.8424
324 3 61.0562 64.1049 57.0946
505 2 62.3442 66.0642 60.0751
502 1 60.4863 64.4649 61.5344
494 1 59.572 70.7723 62.4118
726 1 57.0989 63.7353 60.0663
332 1 58.7109 69.1121 58.8784
335 3 56.9016 69.1022 60.0021
329 2 60.8093 69.3514 57.673
331 1 57.6788 69.7522 59.5908
333 1 59.8261 69.9421 58.3496
493 1 58.5485 69.9807 63.2088
501 3 58.8047 65.9084 63.0068
492 1 58.5445 68.5843 63.2752
506 3 59.8459 63.794 62.0867
508 1 61.4545 63.8854 60.677
173 3 62.7159 70.477 60.101
325 3 62.8345 65.7199 56.0763
906 1 63.1036 68.9099 63.2754
838 2 53.6718 71.0586 58.4707
690 1 49.7055 78.336 62.9181
351 1 53.7937 78.2539 62.0947
111 3 48.7486 77.1784 55.5797
355 3 52.8326 77.8501 62.3991
352 1 54.8334 77.4544 61.5714
706 1 52.9682 71.8406 62.8008
620 1 48.5673 71.0607 59.1788
112 3 51.1664 76.6671 55.9864
705 1 51.8985 71.6147 61.7973
350 3 53.8678 75.5106 62.0041
837 1 53.8884 72.4068 58.3694
619 1 49.7048 71.4976 58.3593
346 1 54.6982 76.0435 61.6094
703 3 50.2486 72.5449 60.5802
699 1 51.0308 72.6427 61.3793
700 1 51.0575 73.7518 62.2185
833 2 53.0889 73.3134 58.9337
832 1 53.3455 74.6596 58.8986
823 2 51.6147 77.7102 59.7309
827 1 52.5724 76.8626 59.3248
613 1 49.9226 72.8746 58.1259
617 3 50.6462 73.2618 57.4602
612 3 49.7641 75.5331 57.5436
698 3 49.7612 74.8208 60.8705
694 1 50.3324 74.8497 61.7571
828 2 52.4863 75.5237 59.4592
826 1 53.7894 77.3037 58.5672
689 1 49.6985 77.1453 62.0767
693 3 49.1386 77.0818 61.1503
831 1 54.5564 75.0943 58.1853
345 3 54.8835 73.3956 61.6074
608 1 49.0629 75.1569 58.3014
825 1 54.7933 76.4815 58.0495
614 1 49.0325 73.7959 58.7025
607 3 48.9098 77.7462 57.785
695 1 50.3578 76.0053 62.5752
609 1 48.2151 75.9901 58.9671
108 1 50.7775 77.6869 55.9116
836 1 55.1413 72.8574 57.7235
107 1 49.4241 77.9881 55.7692
830 1 55.4624 74.2118 57.5915
603 1 48.2344 77.3692 58.5908
1067 3 59.7959 73.9989 55.6461
489 1 58.5441 72.7702 63.0973
1065 3 61.7867 75.2352 59.2827
341 1 55.6871 73.9319 61.2027
215 1 63.0685 75.692 55.996
188 3 59.8611 76.9648 62.0198
190 1 60.8813 78.3858 63.262
839 3 56.9151 72.2573 56.6224
337 1 57.6856 71.1345 59.6908
179 1 61.7393 75.0723 61.8744
1069 1 60.3251 76.5618 58.5322
1072 3 61.1868 77.5332 60.3037
222 1 62.7724 77.9321 56.5499
334 2 59.7722 71.2774 58.5371
338 1 58.8079 71.9444 59.1589
336 1 56.677 71.7714 60.4697
834 3 56.411 74.5492 57.1714
340 3 55.8337 71.1929 60.8445
347 1 55.7898 75.3357 61.0292
219 3 62.5887 74.8432 55.5925
339 2 58.832 73.2958 59.3112
829 3 55.6645 76.881 57.51
1071 2 58.5149 77.828 57.4826
186 1 63.1463 76.5956 63.2031
185 1 61.8784 76.3128 62.47
342 1 56.7373 73.1796 60.6175
174 1 62.6758 72.977 61.116
353 1 56.0085 78.1677 61.0631
490 2 59.4899 72.076 62.4449
835 1 56.0134 71.9081 57.0702
1070 1 59.3066 76.7335 57.4908
183 3 60.814 74.8974 61.3183
485 2 58.4948 74.1244 63.0271
1062 1 60.9233 74.3615 57.5156
184 1 60.7566 77.2145 62.513
349 2 56.9979 77.4026 60.5346
344 2 57.923 75.2696 60.0126
1064 2 59.1636 75.7759 56.5207
178 3 61.8392 72.7199 60.5136
1061 1 61.0583 75.3372 58.516
1063 1 59.9009 74.7071 56.52
1066 3 61.6181 73.5562 57.3714
180 1 62.8318 74.1798 61.8448
216 2 62.3296 76.7617 56.071
343 1 57.8362 73.9132 59.9637
348 1 56.9479 76.0766 60.4767
1068 1 60.4129 77.5968 59.5252
26 2 53.3356 66.915 68.3046
1113 1 51.9559 66.4161 64.8701
1117 3 52.5482 66.4635 65.749
428 2 49.3278 67.2124 67.6402
25 1 53.088 68.0758 68.9027
1118 1 51.1653 68.7143 65.0154
1122 3 51.6956 68.7558 66.0233
21 2 51.9081 68.636 68.9073
427 1 48.4327 68.165 67.943
431 3 48.6318 69.1982 67.5972
1124 1 50.3122 69.7142 64.5526
268 2 55.3453 66.8679 64.8379
1119 1 51.2335 67.4916 64.363
434 1 49.0851 65.9098 67.9078
435 2 49.9473 64.9445 67.5823
272 1 55.5033 68.0275 65.4668
389 2 49.3951 63.7828 64.323
20 1 51.6776 69.9 69.345
273 2 54.4792 68.8766 65.7007
16 2 50.4553 70.4697 69.2881
19 1 52.834 70.6524 69.8873
1114 1 52.0743 65.2827 64.0476
18 1 54.1136 70.0776 70.0632
24 1 54.2979 68.7764 69.5218
277 1 54.5181 70.0074 66.3919
30 1 54.528 66.2748 68.3078
31 2 54.6842 65.1025 67.7377
1112 3 53.0738 64.1441 65.5365
1108 1 52.812 64.1817 64.4752
394 2 48.5175 65.9918 64.701
393 1 48.438 64.6492 64.7762
1123 1 50.0823 70.8645 65.333
22 3 54.9668 70.5537 70.5433
439 1 49.7869 63.6247 67.7485
23 1 55.6003 68.2799 69.3896
278 2 53.4894 70.8592 66.3974
276 1 55.8439 70.4411 66.9294
29 1 55.7523 67.0102 68.7858
35 1 55.8502 64.4564 67.6062
263 2 56.075 64.7458 64.2112
267 1 56.3073 65.9336 64.7823
27 3 56.4218 68.8149 69.8334
32 3 57.8192 66.7539 69.2318
271 1 56.7891 68.3748 66.144
262 1 57.0749 63.8732 63.9647
260 1 58.6831 65.3257 65.224
264 3 59.6218 65.4921 65.63
266 1 57.6501 66.268 65.3549
909 2 61.6333 67.6255 65.3354
261 1 58.4664 64.1697 64.4489
913 1 61.4451 68.9664 65.2122
265 1 57.8784 67.5036 65.9982
269 3 58.8361 67.7038 66.4661
914 2 60.6354 69.7051 65.9691
491 3 56.8355 70.0504 64.5205
908 1 62.4872 66.8583 64.635
904 2 62.597 65.5431 64.701
912 1 62.2551 69.5981 64.1647
28 1 57.0055 66.336 68.7673
270 1 56.9612 69.5935 66.8523
487 1 57.5561 70.6058 63.9875
274 3 57.8821 69.8533 67.257
34 1 57.0922 65.0647 68.1766
37 3 59.182 64.7607 68.5824
259 3 60.5341 63.5279 64.6331
33 1 58.2803 64.3617 68.1873
907 1 63.2344 67.5408 63.5395
496 3 57.8739 68.0652 63.8834
255 1 59.5647 63.3543 64.1984
1127 3 50.4151 71.0243 66.3184
1130 1 48.5624 71.7006 63.4804
2 1 48.2018 76.2703 70.1917
294 3 53.3671 78.4364 69.6028
297 1 50.1702 78.1695 68.2977
15 1 50.2005 71.7392 69.6272
13 1 52.5829 71.9882 70.3127
11 2 48.9833 72.22 69.5327
691 1 50.3762 78.2999 64.2268
290 1 52.5582 77.9984 69.1845
1129 1 49.3046 71.9191 64.784
14 1 51.3252 72.5628 70.2499
17 3 53.4045 72.5469 70.6486
293 2 50.2007 76.9281 67.8362
1 1 49.4809 75.7968 70.5108
292 1 51.2934 76.1173 68.0153
8 1 51.0432 73.8924 70.5375
1134 1 48.3685 74.0912 64.8561
286 1 53.6373 74.5842 68.2586
287 1 52.3643 74.1055 67.6271
1128 1 49.1686 73.1096 65.5118
1132 3 49.6766 73.2698 66.4509
282 1 53.5466 72.068 66.9959
281 1 54.7808 72.5161 67.6388
9 1 49.7414 74.425 70.281
12 3 51.8181 74.5456 70.8602
5 3 50.2121 76.4253 70.9526
283 2 52.477 72.8702 67.108
1137 3 48.9814 75.7586 66.171
476 3 53.631 76.4871 66.1003
692 2 51.0701 77.2212 64.5724
280 1 54.8288 73.758 68.3335
288 2 51.2963 74.8815 67.4962
472 1 54.4339 76.9248 65.5193
697 2 51.8184 75.0006 64.1943
696 1 51.1464 76.0686 63.8408
1133 1 48.3753 75.4077 65.3818
285 1 53.6815 75.8573 68.8122
481 3 54.7181 74.1456 65.5942
289 3 54.5362 76.2547 69.2599
291 1 52.4661 76.6521 68.7439
10 1 48.6949 73.5137 69.7227
702 2 52.8419 72.9318 63.5676
473 1 54.4541 78.3613 65.456
477 1 55.4994 74.7616 65.0895
478 1 55.457 76.1605 64.9275
701 1 51.9389 73.9108 63.4064
1142 3 48.2349 77.906 66.0656
966 3 59.2177 78.255 70.1476
915 3 62.7246 71.5468 63.316
479 1 56.5674 76.8784 64.2265
969 1 61.8436 78.2678 67.9101
284 3 55.7057 74.0358 68.8477
971 3 60.0908 75.8699 69.588
924 2 58.6148 73.8707 67.1158
970 2 62.6799 77.4905 67.1726
483 1 56.5271 74.0664 64.4171
279 3 56.8086 72.0312 68.1963
934 2 56.4893 77.9883 68.1791
932 1 58.3732 78.0028 66.7304
484 1 57.5618 74.859 63.6852
916 1 61.2462 73.1602 64.7025
978 1 62.6358 73.4544 67.4704
922 1 60.2966 73.861 65.5066
925 3 60.9177 75.7333 64.5745
480 2 57.5648 76.1761 63.6879
974 1 62.6763 76.1899 67.1723
921 1 60.3158 75.2542 65.3479
275 1 55.928 71.6779 67.585
923 1 59.4879 73.1135 66.4642
967 1 60.8013 76.3002 68.929
927 1 59.3669 75.9425 66.1061
976 3 61.0989 73.6407 68.939
968 1 60.8137 77.713 68.7765
475 2 56.5395 78.2235 64.1893
488 1 57.5064 71.9924 63.8015
929 2 57.5058 75.8927 67.6477
981 3 62.1324 71.5967 68.5325
930 3 60.1913 77.8747 65.4534
933 1 57.3515 77.2251 67.5412
926 1 59.357 77.3659 66.0267
973 1 61.6812 75.5535 68.1397
911 1 62.1904 70.9984 64.0616
918 1 60.5361 71.0633 65.9292
486 3 55.705 72.0908 65.0656
928 1 58.4547 75.1872 66.9862
482 1 56.4714 72.6546 64.537
919 2 59.6907 71.759 66.6473
187 2 63.1817 77.7596 63.8166
917 1 61.375 71.7771 64.9154
972 1 61.6914 74.1431 68.2232
977 1 62.7522 72.0807 67.7497
920 3 61.9289 73.711 64.1457
874 2 67.4394 52.9203 60.4144
873 1 68.2814 52.1051 59.7345
872 1 69.1237 52.6719 58.6064
529 3 66.1343 55.1737 57.035
871 1 69.0189 54.0561 58.3154
869 2 68.3391 50.8417 59.971
878 1 67.4368 54.2676 60.2672
875 3 69.6572 54.538 57.5809
877 1 68.2786 54.8747 59.2361
229 3 65.0775 51.2696 58.5392
224 3 65.668 48.8628 57.6829
868 1 69.0917 49.9526 59.281
220 1 64.6238 48.7098 57.5216
866 1 69.9463 51.7992 57.8444
867 1 69.9598 50.4202 58.18
1017 1 69.7115 55.2254 62.47
234 3 64.3687 53.2845 59.4136
69 1 64.5236 51.3151 62.1168
870 3 70.5592 52.1942 57.0985
861 1 70.879 49.659 57.4786
864 2 69.0523 48.6245 59.4747
72 3 66.5003 50.7022 62.1768
862 1 70.8003 48.2906 57.7958
63 1 64.75 52.5565 62.7786
225 1 64.0313 50.969 58.3398
68 1 65.5371 50.414 61.8837
879 2 66.7106 55.0066 61.1073
226 1 63.6688 49.7061 57.7932
1023 1 70.5724 54.4156 61.6895
1022 1 70.6804 53.0404 61.9324
239 3 63.7327 55.3484 60.562
74 1 65.3302 49.147 61.2712
75 1 63.9535 48.859 60.9078
1026 3 70.1042 52.5599 62.6936
64 1 63.6695 53.4095 62.9964
67 3 65.7694 52.8292 62.9402
230 1 63.3702 53.1002 59.1962
77 3 67.4004 48.5492 61.4328
73 1 66.4081 48.2451 61.1261
1021 3 69.1162 54.7673 63.2111
683 3 78.3596 51.1278 61.8703
1031 3 71.2169 50.3443 62.1187
865 3 71.4887 50.0818 56.7369
1039 1 73.9503 48.7236 58.496
597 3 78.0568 51.7798 59.1715
1024 1 71.3166 55.0289 60.5772
1028 1 71.474 52.2656 61.0556
1027 1 71.6784 50.8893 61.2905
600 1 76.254 49.3569 60.8164
118 3 77.3127 48.2858 55.9908
593 1 77.2952 51.3463 59.7857
120 1 77.77 50.3711 56.1934
594 1 76.4208 52.1454 60.5772
595 1 75.4316 51.5227 61.4638
1030 2 72.9371 52.1433 59.1144
1029 1 72.2219 52.901 59.9505
596 2 75.4687 50.1882 61.5631
599 1 77.1547 49.9344 59.8207
1034 1 73.1039 50.8369 59.2128
114 1 78.0959 49.0124 56.0824
588 1 76.3358 53.5411 60.2527
1033 1 72.5153 50.1516 60.423
123 3 75.5353 50.2013 56.1644
119 1 76.4065 50.8451 56.2892
1035 2 73.7744 50.0517 58.3699
128 3 74.0416 51.8958 56.4016
125 1 76.1447 52.2087 56.418
124 1 74.7926 52.6078 56.4528
1025 2 72.0895 54.2404 59.7977
592 3 76.9619 53.9899 59.4885
590 1 74.5777 53.6608 62.0996
589 1 75.4566 54.2593 61.0591
591 2 74.5998 52.3346 62.1779
126 1 77.2638 53.1837 56.6012
598 1 77.978 49.047 59.089
1032 1 72.712 48.8045 60.7112
133 3 72.4311 54.0027 56.352
130 1 74.5662 54.0012 56.6402
127 2 76.9808 54.4767 56.8453
129 1 73.2503 54.57 56.6376
678 3 77.5959 53.386 62.3909
131 1 75.7081 54.9132 56.9253
1036 3 72.2821 48.3206 61.558
1038 1 73.3263 48.0554 59.6631
586 2 73.774 54.4643 62.8243
122 2 78.4798 52.6793 56.5476
1040 2 74.7994 48.05 57.7095
583 1 75.3905 55.633 60.7323
601 2 76.152 48.0394 60.985
1012 1 68.9005 57.2967 63.2112
895 3 66.4284 63.0507 60.5775
526 3 64.4985 56.0643 58.6632
527 1 65.9897 56.2667 57.1361
1013 1 68.919 58.6743 62.9972
149 1 68.0662 62.7216 58.186
151 1 70.3724 62.4176 58.928
517 1 63.7509 58.6292 58.8573
150 1 69.1856 61.8851 58.2399
1018 1 69.739 56.6175 62.2917
876 1 68.3725 56.2644 59.1656
883 1 66.626 56.369 61.0306
522 1 65.0108 56.7569 57.9936
530 3 67.4071 56.8538 55.6559
528 1 66.6807 57.2093 56.3038
880 3 68.863 56.8398 58.3752
882 1 67.5165 57.0014 60.015
884 2 65.8848 57.1373 61.8209
523 1 64.7576 58.1713 58.0375
525 2 66.4213 58.5079 56.2462
139 1 70.4959 58.5708 57.2174
881 1 67.4551 58.404 59.8732
888 1 65.7504 58.4407 61.7391
885 3 68.0326 58.9501 59.1923
887 1 66.519 59.1007 60.6594
524 1 65.5712 59.0844 57.1006
520 2 65.3315 60.3637 57.1314
519 1 64.4609 60.9147 58.0062
515 2 64.3295 62.2362 58.1523
886 1 66.5318 60.4994 60.5598
890 3 67.1754 60.9525 59.8265
892 1 65.7699 61.2437 61.4676
1010 2 69.6758 60.6638 61.8008
1014 1 69.6909 59.3326 61.9084
143 3 69.6656 58.0672 56.7847
145 1 70.4095 59.8788 57.7041
1005 2 68.8968 62.7862 62.5885
1009 1 68.9727 61.4433 62.6376
148 3 68.3223 60.1412 57.2292
144 1 69.1884 60.5882 57.6742
893 1 64.9421 60.5761 62.5061
891 1 65.7719 62.6422 61.2739
1015 2 70.3903 58.5182 61.0741
1019 1 70.5264 57.1897 61.1679
518 1 63.6085 60.0501 58.8934
153 3 67.2286 62.3068 57.7251
889 2 65.0045 59.2565 62.5527
898 1 64.0278 62.6795 63.1537
514 1 63.4751 62.7917 58.9841
894 2 64.1783 61.3777 63.2811
1193 3 78.5198 56.9181 57.7013
673 3 76.854 55.6576 62.9773
1204 1 74.944 63.1181 59.5053
791 1 78.439 62.0283 61.6355
1202 2 78.2815 63.1461 57.9021
577 3 73.9617 60.3168 61.0463
138 3 71.0124 55.9383 56.6496
1194 1 77.7394 59.4541 58.1458
788 2 76.2212 62.2144 62.5089
574 1 72.6567 60.6308 62.828
585 1 73.7745 55.812 62.6775
136 1 74.312 56.7816 57.3221
582 3 75.1943 58.2055 60.6672
142 2 72.7891 59.8094 58.321
1208 3 74.172 62.3787 59.7827
140 1 71.727 57.8582 57.2999
573 1 73.4739 59.939 61.9313
793 2 77.0294 60.0471 62.0304
134 1 71.7974 56.5118 56.9799
135 1 73.1017 55.9143 57.0578
1020 2 71.2504 56.3642 60.4042
147 2 71.5225 61.7156 58.9278
798 2 77.9637 57.9125 61.4911
568 1 72.5503 62.0415 62.6308
797 1 78.0033 59.2853 61.581
141 1 72.9175 58.5719 57.8544
1199 1 76.3833 61.2365 58.9277
1201 1 78.5373 61.8737 57.8078
132 2 75.5029 56.2055 57.1636
1200 1 77.5408 60.8507 58.2817
578 1 74.5408 57.7987 61.4242
587 3 76.0686 56.0969 60.0076
792 1 77.1473 61.3632 62.085
1203 3 75.6984 60.5412 59.3445
137 2 74.1466 58.045 57.7203
1198 3 77.0265 58.7324 58.4436
584 1 74.5646 56.4009 61.5704
146 1 71.6191 60.5263 58.3753
572 3 72.8914 62.5269 61.7798
1205 1 76.1797 62.6368 58.9949
579 1 73.6873 58.5652 62.2364
1247 2 68.309 50.1391 64.2427
1251 1 67.379 50.8553 64.888
1250 1 66.0796 50.2429 65.3351
1249 1 65.1139 51.0898 65.9126
1252 2 67.5733 52.2049 65.0039
1255 1 65.4006 52.4458 66.0953
1256 1 66.7103 53.0029 65.6195
1254 1 64.4691 53.3106 66.7008
748 3 68.619 50.879 67.6323
744 1 68.856 49.8167 67.5586
1257 2 66.9757 54.2936 65.868
1253 3 64.128 50.6527 66.1388
1260 1 64.7756 54.6918 66.8681
1244 1 65.9136 48.8488 65.1662
743 1 69.9888 49.3607 66.8709
1246 1 68.1778 48.8212 64.0842
1248 3 65.0127 48.3515 65.5005
749 3 67.0452 49.2323 68.6476
1166 3 69.426 55.1817 65.5952
745 1 67.9502 48.8928 68.1848
1245 1 66.9347 48.1485 64.5349
1261 1 66.0985 55.1441 66.3892
62 3 64.9178 54.956 63.8101
1164 1 70.472 54.8155 65.6671
58 1 63.8921 54.6627 63.5987
747 3 70.6905 50.0944 66.3973
1161 2 70.693 53.6244 65.0636
1258 3 63.5188 52.9434 67.0782
1259 1 63.8135 55.5551 67.4389
1242 2 69.1353 48.0674 63.4783
1146 2 74.8776 48.1852 63.7132
1150 1 74.7339 49.4337 64.2067
311 1 78.2272 54.1694 70.095
1151 2 73.6332 50.1531 64.1473
1160 1 71.8995 53.061 65.1117
1156 2 72.2155 51.936 64.5325
1155 1 73.4595 51.3876 64.6075
1148 1 75.7633 51.3469 65.4824
1152 3 76.5987 51.8133 65.9923
1154 1 74.556 52.1097 65.317
1153 1 74.315 53.3566 65.9353
1157 3 75.0667 53.8773 66.4704
1159 1 73.0064 53.8508 65.8186
1149 1 75.8425 50.0121 65.0692
308 2 77.2163 52.2998 68.989
1158 1 72.803 55.161 66.2532
675 1 77.8389 54.3153 64.3355
312 1 77.0333 53.5573 69.4205
313 2 75.9681 54.2817 69.0863
674 1 78.0102 53.3217 63.3427
676 1 78.2408 54.1716 65.7263
672 2 77.9034 55.1929 66.5652
1147 3 77.5506 49.4918 66.2885
1143 1 76.8843 49.1922 65.5117
669 1 77.1395 55.508 63.9853
307 1 78.3336 51.5926 69.1599
316 1 75.9609 55.6037 69.3538
754 3 71.76 48.242 65.4565
424 3 74.758 48.2261 67.1845
303 2 78.4275 50.3424 68.6557
310 1 78.1043 55.5192 70.4979
57 3 64.0171 57.1669 64.6577
1016 3 68.3915 56.8647 64.0499
1262 2 66.3992 56.4784 66.4718
1265 1 64.1837 56.9368 67.3895
1002 1 67.344 61.5376 64.6164
1272 3 65.3177 60.592 67.6346
1266 1 65.5506 57.3902 66.9578
1267 2 65.8598 58.6898 67.0847
1011 3 67.591 58.8317 64.657
1270 1 64.9623 59.5327 67.5617
1006 3 66.8241 61.0329 65.441
1003 1 67.3442 62.9114 64.3919
1007 1 68.1363 59.4071 63.8888
1008 1 68.1594 60.7973 63.6996
566 2 70.5471 62.8446 65.6969
1269 1 63.6083 59.2273 67.8668
654 1 74.3125 61.9421 65.6464
386 1 77.7047 62.6345 65.6343
580 1 72.977 57.9407 63.3435
1162 3 73.5995 55.7727 66.7106
659 1 75.1264 59.7043 65.061
581 2 73.0939 56.5928 63.5095
318 3 75.0686 56.166 69.0787
441 3 77.9712 61.4998 69.1632
665 1 75.8582 58.5939 65.498
1163 1 71.4977 55.6661 66.1753
656 1 74.7845 62.8187 67.9528
666 1 76.3934 58.4167 66.8819
575 1 72.0601 60.0136 64.033
317 3 76.9275 57.3398 70.242
658 3 74.0133 62.0864 64.6044
657 2 75.3293 61.6055 68.2721
663 3 74.8435 59.7641 64.0222
385 3 77.6432 59.8875 65.3707
664 1 76.1335 57.664 64.4978
661 1 75.479 60.5752 67.396
569 1 71.8391 62.7393 63.6029
668 3 75.8707 57.7658 63.4647
662 2 76.1453 59.4353 67.6972
570 1 71.2355 62.1134 64.8222
671 1 77.2601 56.3379 66.2844
660 1 74.9558 60.7425 66.0142
1165 3 71.2978 56.7472 66.4062
655 1 74.2723 63.0031 66.5978
390 3 76.8431 62.1972 66.0914
670 1 76.7766 56.4884 64.8957
576 2 72.1977 58.699 64.1676
667 2 77.047 57.2959 67.2273
315 1 76.9743 56.2592 70.0626
571 2 71.4027 60.7819 64.9291
155 1 68.082 64.0198 58.7774
156 1 69.3014 64.4657 59.4595
154 1 66.9268 64.7687 58.6874
905 3 64.4818 67.3941 61.7561
101 2 66.2906 67.4948 56.2733
100 1 66.7399 68.6004 56.9039
99 1 68.1492 68.6157 57.395
152 2 70.3783 63.6687 59.4734
157 2 69.2865 65.6774 60.046
160 1 66.974 66.0496 59.36
158 3 66.0287 64.4263 58.272
161 1 68.2003 66.4654 60.049
159 1 65.8159 66.8637 59.2912
162 2 68.2362 67.7043 60.6127
1223 3 70.3183 68.2752 62.0234
900 3 65.3206 65.2134 61.0619
896 1 64.8126 64.7448 61.8749
104 1 67.1364 66.5121 56.0754
103 1 68.4748 66.445 56.4929
165 1 65.9187 68.106 59.9657
166 1 67.1991 68.5218 60.6544
163 3 64.9405 66.4924 58.7557
96 2 65.9953 69.7257 57.0849
93 1 68.7124 69.8083 57.9681
95 1 66.426 70.7826 57.7892
94 1 67.8309 70.8725 58.2282
897 1 64.8722 63.3631 62.0779
106 3 66.7206 65.6893 55.5197
98 1 68.9671 67.4696 57.2549
97 3 69.7161 69.863 58.2291
901 1 63.9942 66.8338 62.5929
105 3 69.0792 65.5068 56.3012
164 1 64.728 68.8432 59.9626
167 2 67.1628 69.682 61.3277
170 1 64.8206 70.0096 60.7454
1228 3 69.1951 70.4345 62.6843
902 1 64.0534 65.4474 62.8372
910 3 63.681 69.3819 62.4859