# LAMMPS data file written by Ovito Basic 3.0.0-dev791
54 atoms
4 atom types
0.0 11.5515079498 xlo xhi
0.0 3.6186580658 ylo yhi
0.0 34.3918800354 zlo zhi

Atoms  # charge

1 1 0.0 7.502658367 0.0 11.862630725
2 1 0.0 7.502658367 0.0 16.65992403
3 1 0.0 7.502658367 0.0 21.45721817
4 1 0.0 9.824603081 1.809329033 12.934662819
5 1 0.0 9.824603081 1.809329033 17.731956005
6 1 0.0 9.824603081 1.809329033 22.529250145
7 1 0.0 1.726904273 1.809329033 12.934662819
8 1 0.0 1.726904273 1.809329033 17.731956005
9 1 0.0 1.726904273 1.809329033 22.529250145
10 1 0.0 4.04885006 0.0 11.862630725
11 1 0.0 4.04885006 0.0 16.65992403
12 1 0.0 4.04885006 0.0 21.45721817
13 2 0.0 7.876234055 1.809329033 12.34243679
14 2 0.0 7.876234055 1.809329033 17.139730453
15 2 0.0 7.876234055 1.809329033 21.937024117
16 2 0.0 9.45102787 0.0 12.454856634
17 2 0.0 9.45102787 0.0 17.252149582
18 2 0.0 9.45102787 0.0 22.049443245
19 2 0.0 2.100479841 0.0 12.454856634
20 2 0.0 2.100479841 0.0 17.252149582
21 2 0.0 2.100479841 0.0 22.049443245
22 2 0.0 3.675273895 1.809329033 12.34243679
23 2 0.0 3.675273895 1.809329033 17.139730453
24 2 0.0 3.675273895 1.809329033 21.937024117
25 2 0.0 4.100508213 0.0 10.253618509
26 2 0.0 4.100508213 0.0 15.050911903
27 2 0.0 4.100508213 0.0 19.848205566
28 2 0.0 1.675245881 1.809329033 14.543674946
29 2 0.0 1.675245881 1.809329033 19.340968132
30 2 0.0 1.675245881 1.809329033 24.138260841
31 2 0.0 9.876261711 1.809329033 14.543674946
32 2 0.0 9.876261711 1.809329033 19.340968132
33 2 0.0 9.876261711 1.809329033 24.138260841
34 2 0.0 0.0 1.809329033 12.404739141
35 2 0.0 0.0 1.809329033 17.202032089
36 2 0.0 0.0 1.809329033 21.999325752
37 2 0.0 5.775753975 0.0 12.392554045
38 2 0.0 5.775753975 0.0 17.189847946
39 2 0.0 5.775753975 0.0 21.987140656
40 2 0.0 7.450999737 0.0 10.253618509
41 2 0.0 7.450999737 0.0 15.050911903
42 2 0.0 7.450999737 0.0 19.848205566
43 2 0.0 6.8213522217 1.5468928292 7.3963224544
44 2 0.0 7.0238032555 1.8131284669 27.0662532388
45 3 0.0 5.4330298703 1.6266244977 7.2117210021
46 3 0.0 5.6222007408 1.81412636 27.0553070611
47 4 0.0 7.2201982594 2.128341656 6.7009333184
48 4 0.0 4.9344923262 0.9483354729 7.9304316749
49 4 0.0 5.0807583624 2.6617104539 7.4043876549
50 4 0.0 5.1609188193 1.2916530156 6.1893869243
51 4 0.0 7.2877107975 1.8719534578 28.0194133674
52 4 0.0 5.2726342055 1.7523216032 26.0054498167
53 4 0.0 5.2336164379 0.9306839346 27.6051503781
54 4 0.0 5.2355690358 2.7578057462 27.4952617747
