#Input file for lammps
 
2384 atoms
5 atom types
 
0.0 30.5416 xlo xhi
0.0 30.5416 ylo yhi
0.0 39.6922 zlo zhi
 
Masses
 
1 28.06
2 1.008
3 14
4 12
5 6.941
 
Atoms
 
      1 1 0      28.2646      18.6597        2.388
      2 1 0      29.8891      17.1117      1.81758
      3 1 0      29.1888      20.8379      2.70654
      4 1 0      28.9929      15.8867      3.36076
      5 1 0      7.64081       19.226      0.93954
      6 1 0     0.928975      21.3194      1.91829
      7 1 0      10.2763      22.4915      0.62255
      8 1 0      7.91388      25.7775      0.32995
      9 1 0       13.614      24.6761      0.15789
     10 1 0      12.6619      9.98815      0.25604
     11 1 0      17.4965      0.61941      0.56126
     12 1 0      19.7122      1.33824      0.66466
     13 1 0      2.64874      19.3844      2.19138
     14 1 0      6.03038      21.0572      1.42413
     15 1 0      12.3258      26.4982      0.74527
     16 1 0      13.2357      28.2592      1.48472
     17 1 0      17.0818      8.88984      0.79893
     18 1 0      9.85877      26.3931      1.42465
     19 1 0      14.0488      6.42534      0.85773
     20 1 0      30.2849      24.8074      0.15572
     21 1 0      12.0403      19.0658      1.22427
     22 1 0      14.3511      11.5109      0.73563
     23 1 0      23.7148      5.18279      1.05671
     24 1 0      21.9572      28.4174      0.35992
     25 1 0      23.5687      9.15669      2.26967
     26 1 0      12.1668      30.4087      1.18183
     27 1 0      24.2332      19.0138      1.95829
     28 1 0      8.13476      15.1738      1.65339
     29 1 0        9.869      20.1831      1.51194
     30 1 0      19.0755      19.0153      1.04554
     31 1 0      16.6285      2.86052       1.1289
     32 1 0      3.65971      23.8424      0.68155
     33 1 0      28.9979       3.3046      1.08164
     34 1 0      20.1003      17.6672      2.29912
     35 1 0      9.04171      8.87479      2.07426
     36 1 0      13.9667      15.5236      1.47749
     37 1 0      10.1879      4.84312      1.55181
     38 1 0      4.49977      27.9778      0.77804
     39 1 0       26.235      7.18784      1.16948
     40 1 0      29.7091      5.29324      1.17838
     41 1 0      23.6829      21.0172      2.33726
     42 1 0      26.5831       11.296      1.64893
     43 1 0      12.3433      22.9107      1.19973
     44 1 0       1.5962      17.6802      2.69147
     45 1 0      3.03351      26.1197      1.52754
     46 1 0      24.9353      17.9908        3.912
     47 1 0      10.8748       11.129      0.22471
     48 1 0      1.72649      15.2617      2.20706
     49 1 0       15.682      24.6722      1.29538
     50 1 0      8.07605       1.2228      1.10674
     51 1 0     0.216135      28.8961      1.50753
     52 1 0      10.0187      14.3584      2.41093
     53 1 0      30.2767      12.3484      2.06832
     54 1 0      21.3454       11.937      2.88242
     55 1 0      26.7337       3.0889      1.89499
     56 1 0      25.0317       14.796      2.52457
     57 1 0      6.11857      19.7423      4.58269
     58 1 0      18.1032      4.56451      1.39582
     59 1 0      22.5897      7.22903      1.05337
     60 1 0      26.6044       15.916      4.03599
     61 1 0      8.80609      23.7852      1.58241
     62 1 0      15.9773      6.90734      1.57104
     63 1 0      11.3339      13.4027      0.86489
     64 1 0      19.1626      8.95544      1.42574
     65 1 0      12.5009      8.07688      1.67358
     66 1 0       17.523      14.0495      1.89299
     67 1 0      25.5133      28.9341      1.34948
     68 1 0      15.4231      20.7665      0.93244
     69 1 0      30.4584      14.0731       3.2549
     70 1 0      1.35458      23.2907      1.32557
     71 1 0     0.960455      26.5405      1.32274
     72 1 0      19.8376      27.2473      0.69113
     73 1 0      25.7022      9.14217      2.34042
     74 1 0      25.6676      5.12083      2.38927
     75 1 0      7.59875      17.3459      2.53373
     76 1 0      10.5083      7.30501      1.87068
     77 1 0      21.4122      30.4523      1.51184
     78 1 0      8.32324      3.41851      2.09158
     79 1 0       13.202      13.2599      1.89056
     80 1 0      25.2496      0.83783      1.76679
     81 1 0      6.12061      26.4764      1.76772
     82 1 0      27.4214      21.9377      1.50247
     83 1 0      24.8156      24.6254      2.94852
     84 1 0       20.041      21.1679      1.60162
     85 1 0      1.58049      1.69461        2.048
     86 1 0      5.00369      11.2492      1.52598
     87 1 0      6.38316      4.22051      2.11605
     88 1 0      13.4697      20.8656      1.90267
     89 1 0      12.6041      17.1345      2.50544
     90 1 0      28.3467      24.3303      1.60002
     91 1 0      15.9546      10.3696      1.90202
     92 1 0      4.83164      13.6001      1.91618
     93 1 0      23.0739      11.4961      1.65862
     94 1 0      19.8578      3.08657      1.85586
     95 1 0      9.83876      30.3583       2.1276
     96 1 0      24.8733      12.6816       2.7171
     97 1 0      22.4836      17.3771      2.36032
     98 1 0      5.59542      17.0141      3.83359
     99 1 0      6.88581      22.7989      2.30338
    100 1 0      18.8087      22.8632      1.30577
    101 1 0      4.13661      29.5744      2.14974
    102 1 0      28.5326       10.856      2.74927
    103 1 0      28.1094      6.64744        2.331
    104 1 0      15.6845      15.4658      2.74652
    105 1 0       16.924      19.2293      1.94616
    106 1 0       16.387      22.7657      1.92293
    107 1 0      23.4564      27.6688      1.78568
    108 1 0      15.4582      28.2721       2.3798
    109 1 0      22.1207      21.8056      0.65533
    110 1 0      6.50685       14.799      3.09203
    111 1 0      23.2346      1.38215       2.1043
    112 1 0      19.3371      15.3361       2.9305
    113 1 0      13.1224      1.25246      2.82345
    114 1 0      1.85996      30.1772      2.60475
    115 1 0      21.1515      14.2767      3.36239
    116 1 0      17.2904      29.7235      2.35596
    117 1 0      22.1946      3.65829      2.25862
    118 1 0      12.0873      3.67148      2.52493
    119 1 0      25.4883      22.3477       2.9875
    120 1 0      6.00408      0.62734      2.36418
    121 1 0      14.8705      2.70276      2.75893
    122 1 0      3.10805      5.41872       2.7499
    123 1 0      7.03399      8.31427      2.95148
    124 1 0      5.18909      24.4425      2.41358
    125 1 0      2.67157       10.549      1.69675
    126 1 0      19.4114      11.0628      1.80719
    127 1 0      20.2909      24.8961      1.34059
    128 1 0      17.5557      11.9155      2.65218
    129 1 0      12.2709      26.6718      3.18211
    130 1 0      23.0547      25.2014      1.88207
    131 1 0      1.03733      5.88801      2.75084
    132 1 0      13.8814      4.93227      2.75617
    133 1 0      23.0557      15.4909      3.48764
    134 1 0      3.27069      16.3137      3.81682
    135 1 0      30.2142      2.27744      2.90302
    136 1 0      2.06203       20.856      4.12015
    137 1 0      12.2186      24.2267       3.0213
    138 1 0      9.17214      28.1495      2.81572
    139 1 0      29.3147      8.62194      2.72735
    140 1 0      15.9255       26.272      3.03785
    141 1 0      10.8724      16.3585      3.48979
    142 1 0       22.136      23.7955      39.6012
    143 1 0      19.3869      28.3502      2.44864
    144 1 0      6.29878      6.09431      3.60065
    145 1 0      27.0422       28.013      2.51122
    146 1 0      27.0209      17.9452      4.35412
    147 1 0      3.07916      3.05016      3.37508
    148 1 0      10.1994      24.8467      3.28185
    149 1 0      29.1075      28.9793      3.28729
    150 1 0      5.18633      2.58283      3.40868
    151 1 0     0.015225      17.9684      4.29058
    152 1 0      3.79185      19.0907      4.29046
    153 1 0       16.209      17.7488      3.30577
    154 1 0      9.59319      20.2715      3.62825
    155 1 0      26.9602      25.6626      2.44247
    156 1 0      5.79807      9.98277       3.4882
    157 1 0      19.6661      7.50664      3.22741
    158 1 0      21.7774      7.06686      3.31702
    159 1 0     0.623655      8.05566      3.68868
    160 1 0       2.0487      25.7061      3.67831
    161 1 0      9.21115       18.038      3.99289
    162 1 0      17.9125      5.91295      3.39757
    163 1 0      26.7626      1.87272      3.65641
    164 1 0      7.17591      27.7676      3.57364
    165 1 0     0.362635      20.0966      5.27258
    166 1 0      3.28215      13.8056      3.38512
    167 1 0      28.9529      13.5504      5.11607
    168 1 0      27.7365      15.0123      5.92559
    169 1 0       9.7091      12.7683      3.96064
    170 1 0      10.1048      10.3593      3.77026
    171 1 0      15.8366      7.02639      3.90786
    172 1 0      14.0033      18.3422      4.16879
    173 1 0      13.2565      8.33277      3.85414
    174 1 0       9.6331      3.81124      4.06534
    175 1 0      28.7784      0.62233      4.07842
    176 1 0      18.3928      22.0401      3.74758
    177 1 0      15.3033      9.33076      3.87319
    178 1 0       7.6365       21.448       4.1025
    179 1 0      7.11385      18.0204      5.36198
    180 1 0      1.83262      11.8642      3.09323
    181 1 0       1.9831      17.0397      5.29861
    182 1 0      2.25615       9.4307      3.77749
    183 1 0      10.0705      6.14693      3.99106
    184 1 0      30.4347      26.8161      3.58982
    185 1 0      24.9321      9.00422      4.61438
    186 1 0      10.2143      0.53779       4.1303
    187 1 0      1.82116      23.2954      3.77049
    188 1 0      24.9387      5.27404       4.4265
    189 1 0      21.0659        29.73      3.68607
    190 1 0      13.3471      12.8604      4.27759
    191 1 0      17.9875      19.7681       4.0876
    192 1 0      27.9712      11.3407      4.80781
    193 1 0      29.1279      25.1447      3.79909
    194 1 0      13.6256      20.4952       4.2664
    195 1 0      7.63352      13.3002      4.66153
    196 1 0      6.57451      30.0628      4.25751
    197 1 0      22.8389      2.26028      4.29219
    198 1 0      21.4409      18.8736      4.02914
    199 1 0      13.9309      26.2476       4.2824
    200 1 0      19.1744      2.28724      4.04563
    201 1 0      4.19517      6.53195      4.62312
    202 1 0     0.206235      4.12983      4.24308
    203 1 0      11.5845      2.50498      4.25698
    204 1 0      17.4078      0.53538      4.26499
    205 1 0      24.7823       0.9259      4.24481
    206 1 0      19.5942      26.7471      4.25778
    207 1 0      22.4843       4.9122      4.28575
    208 1 0      21.5936      10.8775        4.967
    209 1 0      24.6224       12.629      5.03485
    210 1 0      25.6501      21.8404      5.25902
    211 1 0      3.69338      28.7567      4.40929
    212 1 0      8.32188      9.57003      4.68256
    213 1 0      21.6034      21.0819      3.49924
    214 1 0      15.6702      1.79986       4.7197
    215 1 0      27.5958       5.9668       4.5363
    216 1 0      13.9588      5.98496      4.62975
    217 1 0      14.8871      14.5586      4.86841
    218 1 0      13.4645       30.401      4.81286
    219 1 0      23.0247      28.5042      4.03416
    220 1 0      4.07948      8.78416      4.70004
    221 1 0      19.2969      10.5801      5.71402
    222 1 0        8.314      6.98433      4.86301
    223 1 0       18.232      16.8742        4.223
    224 1 0       14.696      28.3983      4.66744
    225 1 0      21.6104      14.3842       6.6506
    226 1 0      16.3195      23.0195      4.57011
    227 1 0      10.7272       27.638       4.4164
    228 1 0      30.3055      16.1901      5.49499
    229 1 0      1.45373      29.6152      4.87106
    230 1 0      13.9638      23.8361      4.68477
    231 1 0      25.3676      19.4944      5.75485
    232 1 0      22.6271      8.80682      4.78573
    233 1 0      11.3782      20.8654      5.02834
    234 1 0      17.5116      26.2968      4.85197
    235 1 0      4.53292      24.4406      4.69648
    236 1 0      6.25399      19.7436      6.94016
    237 1 0      28.9501       9.1763       5.0505
    238 1 0      20.8948      24.9357      3.39021
    239 1 0      11.3688      15.3886      5.58139
    240 1 0      26.6302      3.64154      5.21832
    241 1 0      17.5304      11.8727      4.90471
    242 1 0       11.933      9.47509      4.95213
    243 1 0      19.7894      18.5476      5.17476
    244 1 0      11.6934      22.9715      5.14209
    245 1 0      23.5489      15.5039      5.80798
    246 1 0      6.45707       11.432      5.21959
    247 1 0      25.5762      7.23453      5.64039
    248 1 0       11.253       13.223       5.3951
    249 1 0     0.150665      28.0053      5.38644
    250 1 0      11.9036      6.94408      5.28183
    251 1 0      24.3398      25.1989      5.11608
    252 1 0      17.2473      15.8779      6.14998
    253 1 0     0.703365       6.2189      5.47137
    254 1 0      13.8389      10.8127      5.24616
    255 1 0      1.96677      2.75889       5.3662
    256 1 0      25.4098      14.6761      5.82308
    257 1 0      4.27344      20.4923      5.77892
    258 1 0      3.49455      26.5343      5.14796
    259 1 0      18.3558      4.27691      5.17955
    260 1 0      25.7753      10.9172      5.66443
    261 1 0      13.5067      15.5912      6.40772
    262 1 0      26.7841      28.3142      4.89939
    263 1 0      20.8255      1.20953      4.88091
    264 1 0      23.2582      17.8608      5.16905
    265 1 0      19.1293      8.31393       5.3804
    266 1 0      11.4447      29.6247      5.33889
    267 1 0      1.53032      11.1091      5.52184
    268 1 0      8.29489      0.39908      5.34997
    269 1 0      6.22288      5.57616      5.61008
    270 1 0      22.6421      12.2726      6.20225
    271 1 0      3.44041      22.7157      5.46512
    272 1 0      30.4847      23.5505      4.92783
    273 1 0      6.08992      3.26644      5.51167
    274 1 0      9.65709      24.1596      5.46892
    275 1 0      28.8437      4.58713      5.54229
    276 1 0      4.11006       14.285      5.72484
    277 1 0      1.94571      14.9378      6.29926
    278 1 0     0.852835       13.425      5.37189
    279 1 0      24.8956      29.5311      5.22212
    280 1 0      20.2164      23.1427      4.99656
    281 1 0      16.9549      8.12439      5.73098
    282 1 0      29.3366      21.5248       4.7527
    283 1 0      6.01391      15.8735      5.89135
    284 1 0      8.16118      2.73429      5.67703
    285 1 0      15.1629       21.382       5.8309
    286 1 0      7.10332      26.5328      5.63253
    287 1 0      20.0624      29.2671      5.79222
    288 1 0       19.899      14.6928      5.40355
    289 1 0      5.01365      29.7009      5.84915
    290 1 0     0.380935      9.29521      5.94192
    291 1 0      26.3898      26.1865      5.90768
    292 1 0      16.2978      10.4214       5.6245
    293 1 0      16.7353      19.8662      5.90265
    294 1 0      7.87146      22.7664      5.80108
    295 1 0      14.1477      1.12605      6.51333
    296 1 0       9.3455      18.0377      6.32416
    297 1 0      16.4898      13.6285      6.11065
    298 1 0      29.8048      11.5146      6.35029
    299 1 0      7.78646      14.5915       6.4023
    300 1 0      23.0025      27.0016       5.5882
    301 1 0      28.0103      24.7274      5.91503
    302 1 0      18.8228      13.2408      6.39081
    303 1 0      16.5559       28.072      6.03337
    304 1 0      2.47221      18.9404      6.63773
    305 1 0       9.5193      26.1618      5.85457
    306 1 0      17.1767      24.5316      6.13733
    307 1 0      17.8215      29.8365      5.99217
    308 1 0      2.76274      5.90567       6.4042
    309 1 0      27.8734      7.78405      6.26368
    310 1 0      1.09112      0.76104      6.22859
    311 1 0      6.40829      24.5602      6.24193
    312 1 0      27.5079      22.3357      6.19792
    313 1 0      21.9543      22.1395        5.722
    314 1 0      29.2311      0.80261      6.16393
    315 1 0      20.8967      26.9142      6.10043
    316 1 0      4.74338      12.2309      6.43251
    317 1 0      28.5782      29.0798      6.14995
    318 1 0      13.5035       24.959       6.3572
    319 1 0      9.68727      15.9584      6.90006
    320 1 0      16.5448      3.59133      6.16529
    321 1 0      12.5961      2.65115      6.46388
    322 1 0      1.54767       26.442      6.66676
    323 1 0      9.03196      8.36641      6.74255
    324 1 0      23.9885      23.3931       6.2381
    325 1 0       15.036      5.39655       6.5703
    326 1 0      21.5853      4.71652      6.47425
    327 1 0      8.31186      19.0822      7.83206
    328 1 0      22.1832      2.56884      6.26835
    329 1 0      27.5966      18.5282      6.61663
    330 1 0      24.3884      1.73318      6.53624
    331 1 0      5.49505      27.7772      6.76047
    332 1 0      29.1017      17.0048      7.31296
    333 1 0      11.0099      19.7525      6.95936
    334 1 0      13.8888       27.338      6.75869
    335 1 0      28.7963      20.2203      7.02426
    336 1 0       16.243      17.7901      7.03046
    337 1 0      3.95628      9.07208      7.02026
    338 1 0      3.03444      11.0074      7.18356
    339 1 0      2.68317      3.77346      7.14226
    340 1 0      19.5027      4.87112      6.99866
    341 1 0      20.1065      7.31942      7.09246
    342 1 0     0.761145      19.9139      7.61376
    343 1 0      7.56055      10.3252      7.19466
    344 1 0      7.85768      6.33155      7.28006
    345 1 0      28.1103      2.73252      7.10096
    346 1 0       29.504      6.23547      7.06766
    347 1 0      22.4158      8.12665      7.15636
    348 1 0      11.1038      8.39701      7.02306
    349 1 0      19.0543      10.5884      7.91406
    350 1 0     0.729795      24.3709      7.07926
    351 1 0      25.6907      3.04286      7.40706
    352 1 0      13.9068      17.7147      6.44673
    353 1 0      19.0539      23.8274      7.10176
    354 1 0      12.4809      10.4674      7.26836
    355 1 0      10.8559      30.0483      7.40846
    356 1 0      11.2944      24.4618      7.17736
    357 1 0      4.76152      2.67833      7.39586
    358 1 0      20.0431      19.1068      7.36936
    359 1 0       11.249      12.1548      7.56756
    360 1 0       24.574      7.09013      7.67646
    361 1 0      22.7676      16.8093      7.61086
    362 1 0      4.29254      15.7113      7.63416
    363 1 0      4.24073      19.3062      8.06926
    364 1 0      2.66581      23.2139      7.52286
    365 1 0      25.8346       10.868      7.89336
    366 1 0      11.7154       6.1447      7.57226
    367 1 0      14.9552      10.9985      7.52606
    368 1 0      8.63135      29.7736      7.42986
    369 1 0      4.18759      0.44668      7.69106
    370 1 0      26.4042      14.4246      8.06046
    371 1 0      5.93098      17.5062      7.73486
    372 1 0      7.73459      21.5506      7.70836
    373 1 0      18.0053      16.1518      8.37526
    374 1 0      30.0764      14.1939      7.57856
    375 1 0      9.20613      3.00332      7.70346
    376 1 0      23.5597      18.9871      7.25136
    377 1 0      18.0306      20.0623      7.88616
    378 1 0      13.2864      4.56424      7.60106
    379 1 0      3.06963      17.3221      8.13176
    380 1 0       20.716      0.58485      7.26736
    381 1 0      16.2508      7.16031      7.72146
    382 1 0      23.5703      11.4645      8.21406
    383 1 0      8.22266      27.5187      7.59806
    384 1 0       15.419      25.0688      7.80196
    385 1 0     0.471515        7.954      7.88606
    386 1 0      20.7109      16.6181      8.25736
    387 1 0      23.8814        27.76      7.60446
    388 1 0      2.66736      7.25681      8.08136
    389 1 0      15.1134      0.70931      8.74666
    390 1 0      26.1549      27.0242      7.92566
    391 1 0      29.6973      27.5212      7.83696
    392 1 0      11.1232      1.85577      7.89096
    393 1 0       21.872      20.5467      7.55386
    394 1 0      7.55874      13.0504      8.16146
    395 1 0      15.2761      12.9884      8.13226
    396 1 0      3.40022      26.7785      7.63126
    397 1 0      24.4821      30.1083      7.66816
    398 1 0      12.1726      28.3024      7.96906
    399 1 0      28.6107      25.4477      7.85246
    400 1 0      20.5169      28.5383      7.62296
    401 1 0      26.5929      8.71651      8.09656
    402 1 0      9.63631      5.10858      8.16566
    403 1 0      1.92578      30.5303      8.17326
    404 1 0      10.5003       26.581      7.89516
    405 1 0      20.1704      25.5498      7.84026
    406 1 0      29.5046      12.1052      8.38796
    407 1 0      12.9164      18.9941      7.93566
    408 1 0       14.288      20.8403      8.08066
    409 1 0      28.3111      15.4918      8.60836
    410 1 0      16.7933      9.57162      8.19146
    411 1 0      22.5149      5.84261      7.99926
    412 1 0      6.01267      9.23207      8.24916
    413 1 0      17.4113      0.19418      8.00206
    414 1 0      15.7814      27.3405      8.16396
    415 1 0      27.1446       12.336      8.88346
    416 1 0      30.2706      18.2502      8.73536
    417 1 0      9.19066      11.6946      8.42996
    418 1 0      5.53618      12.3285      8.56326
    419 1 0      29.4916      4.31603      8.38006
    420 1 0      9.97141      21.1173      8.61976
    421 1 0      17.4903      14.0672      8.42296
    422 1 0       2.3906      21.3299      8.50806
    423 1 0      17.0198      2.63577      8.17056
    424 1 0      19.4513       12.824      8.79836
    425 1 0      22.6614      9.60102      8.84956
    426 1 0      24.7049      4.84068      8.71936
    427 1 0      18.1789      6.18542      8.60496
    428 1 0      19.6635      16.4566      6.52136
    429 1 0      25.7764      18.7071      8.27826
    430 1 0        1.551       28.178      8.56826
    431 1 0      28.4776      0.36215      8.47816
    432 1 0      13.7598      14.5114      8.42016
    433 1 0       6.0789        24.49      8.65136
    434 1 0       27.781      28.6908      8.49216
    435 1 0      27.4817      21.7543      8.58536
    436 1 0      10.2761      15.5584      9.14116
    437 1 0      24.9925      15.1745      9.49386
    438 1 0      22.5811      0.97862      8.15056
    439 1 0      20.4394      9.20465      8.85356
    440 1 0       6.7488      6.96458      8.99376
    441 1 0      18.4937      22.0921      8.74836
    442 1 0      24.5815      24.0555      8.48926
    443 1 0      1.03608      3.59741      8.84816
    444 1 0      13.0348      0.17333      9.10416
    445 1 0      11.8347      13.7328      9.05706
    446 1 0      5.58228      27.7786      8.93566
    447 1 0      11.3347      23.1249      8.85496
    448 1 0       3.9664      24.7843      8.80056
    449 1 0      22.3275       29.238      8.56166
    450 1 0       17.192      18.2855      9.29596
    451 1 0      19.0698      1.18796      8.79916
    452 1 0      26.6807      1.70616      9.02626
    453 1 0      9.53763      9.41961      9.17286
    454 1 0      21.0346      14.2739      8.98126
    455 1 0      29.2978      20.4276      9.50896
    456 1 0      1.40773      16.8667      9.45536
    457 1 0      19.0302      3.55447      8.89006
    458 1 0      4.50871      14.1065      9.33406
    459 1 0      1.48514      14.9503      8.59686
    460 1 0      17.8765      25.8819      8.69636
    461 1 0      5.65493      3.02255      9.51916
    462 1 0      13.3836      9.61523      9.29886
    463 1 0      7.90358      2.31143      9.31796
    464 1 0      7.74256      0.07313      9.22546
    465 1 0      12.4752      7.37301      9.37946
    466 1 0      2.37112      11.2652      9.50146
    467 1 0      26.5162       25.385      9.24026
    468 1 0      30.1634      24.0506      9.25766
    469 1 0       26.051      30.1791      9.13686
    470 1 0      23.2112      13.4939      9.53226
    471 1 0      7.15752      17.2496      9.36786
    472 1 0      5.59317      30.1956      9.51276
    473 1 0       25.458      7.33727      9.54746
    474 1 0      13.4117      22.2417      9.48596
    475 1 0      23.6567       26.005      8.97686
    476 1 0       7.0423      22.4806      9.52116
    477 1 0        3.935      20.2689      10.1736
    478 1 0      14.8486      7.75353      9.63096
    479 1 0      8.02538      15.0961      9.18286
    480 1 0     0.304665      21.8143      9.72066
    481 1 0      24.1353      17.1811      9.16726
    482 1 0      18.7267      27.7984      9.07396
    483 1 0      16.3467      29.2612      9.40796
    484 1 0      27.9078      23.5378      9.63996
    485 1 0      16.0798      20.5138      9.58176
    486 1 0      7.11663      26.4126      9.60216
    487 1 0      30.1351      8.73753      9.69266
    488 1 0      19.4655      7.33501      9.93116
    489 1 0       14.926      23.7902      9.76266
    490 1 0       1.2445      1.37987      9.68876
    491 1 0     0.264055      11.0197      9.91946
    492 1 0      26.1966      20.2705      9.70306
    493 1 0      5.77604      10.4449      10.0141
    494 1 0      2.65482      13.4655      10.0379
    495 1 0      21.3996      25.4617      9.61666
    496 1 0      13.5482      3.72117      9.78656
    497 1 0      9.53572      26.3356      9.83666
    498 1 0      22.0703      21.1281      9.86166
    499 1 0      3.68066      17.9246      10.4637
    500 1 0      27.7042      8.39965      10.1231
    501 1 0      3.33542      6.28823      10.1616
    502 1 0      5.46044       5.2886      10.2379
    503 1 0      7.74624      8.79244      10.2685
    504 1 0      3.32659      27.4611      10.0296
    505 1 0      11.8782      2.20172      9.96736
    506 1 0      21.4164      6.00356      10.0999
    507 1 0      9.01839      18.8662      9.91536
    508 1 0      10.5157      17.2573      10.4216
    509 1 0      12.5939      28.5666      10.0548
    510 1 0       17.185      10.0267      10.2732
    511 1 0      16.2387      12.1946      10.2535
    512 1 0      12.7251      17.8089      10.1046
    513 1 0      16.8811      22.3438       10.289
    514 1 0      15.4259      2.75103      10.0631
    515 1 0      17.0767      4.62217      10.1397
    516 1 0      28.5545      27.9631       10.305
    517 1 0       14.448      27.4489      10.3305
    518 1 0      11.2679      8.96723      10.3967
    519 1 0      23.7936      8.58583      10.6408
    520 1 0      9.48691      5.33696      10.5006
    521 1 0     0.217935      27.5977      10.5003
    522 1 0      28.3614      16.0768      10.7454
    523 1 0      6.08791      14.9998      10.6396
    524 1 0      29.2076       18.337      10.9329
    525 1 0      29.6572      0.86979      10.3003
    526 1 0      23.6925      22.9555      10.3136
    527 1 0      22.0864      2.01817      10.3287
    528 1 0      14.2241      15.9517      10.1923
    529 1 0      25.5619       4.7985      10.6661
    530 1 0       19.603      18.2425      9.69246
    531 1 0      5.85785      20.8949      10.8644
    532 1 0       27.244      11.9983      11.1227
    533 1 0      1.86139       4.8309      10.7257
    534 1 0      20.0432      21.9551       10.536
    535 1 0      19.5446       10.137      10.7557
    536 1 0      29.0155      4.80791      10.6873
    537 1 0      9.00011      12.1053      10.8678
    538 1 0      10.3776      24.2701      10.6337
    539 1 0      4.92248      1.33408      11.0047
    540 1 0      20.7369      4.03164      10.6169
    541 1 0      13.6979      5.83312      10.8205
    542 1 0      20.0791      15.9061      10.5905
    543 1 0     0.649575      25.4361      10.8362
    544 1 0      3.69563      9.97471      11.0797
    545 1 0      17.9767      13.3818      10.7464
    546 1 0      26.2025      15.4423      11.2987
    547 1 0       7.7968      6.43866      11.1003
    548 1 0      24.3202      21.0511      10.8543
    549 1 0      2.02278      21.5624      11.1326
    550 1 0      16.3181      16.7452      10.3164
    551 1 0      5.52376      17.1261      11.2484
    552 1 0      10.3951      28.2109       11.023
    553 1 0      9.02858      30.1427      11.1523
    554 1 0      17.8182      24.4258      10.6689
    555 1 0      3.11733      25.2883      11.0714
    556 1 0      12.2956      13.0151       11.195
    557 1 0      6.92755       19.028      11.2613
    558 1 0       4.2739      29.0249      11.2012
    559 1 0      27.4383      6.19112       11.179
    560 1 0      12.8582      10.7311      11.3764
    561 1 0      8.87053      22.8385      11.1165
    562 1 0       26.574      2.64599       11.235
    563 1 0      26.1309      13.3605      12.3041
    564 1 0      20.4117      27.2528      10.7776
    565 1 0        21.95      28.9302      10.7808
    566 1 0      15.6727       6.1673      11.3177
    567 1 0      11.4209      6.58368      11.3856
    568 1 0       1.2608      15.1065      11.2207
    569 1 0       10.122      20.9191      10.9977
    570 1 0      21.4575      23.5516      10.9603
    571 1 0      20.1004      12.1942       11.143
    572 1 0      9.02204      3.09113      11.3882
    573 1 0      19.1685      0.53498      11.1006
    574 1 0      22.2855      13.3295      11.4384
    575 1 0      26.9464      26.5011      11.4253
    576 1 0      12.7279      0.20028      11.1681
    577 1 0      2.82911      1.45996      11.4987
    578 1 0     0.566735       8.0145      11.5576
    579 1 0      16.1354      8.47489       11.536
    580 1 0      23.4063      17.3414      11.4951
    581 1 0      10.5755      1.29452      11.7699
    582 1 0      12.5435      21.1809      11.4692
    583 1 0      14.2405      25.4209      11.3623
    584 1 0      20.6468      19.7616      11.2334