LAMMPS data file via write_data, version 12 Dec 2018, timestep = 16400000

6480 atoms
3 atom types

8.2074953112946631e+01 1.2322504688705392e+02 xlo xhi
8.2074953112946631e+01 1.2322504688705392e+02 ylo yhi
8.2074953112946631e+01 1.2322504688705392e+02 zlo zhi

Masses

1 14
2 12
3 1.008

Atoms # charge

4984 2 -6.0531579603866237e-02 8.5006261444799023e+01 8.4027863124834994e+01 8.6306788563767512e+01 0 1 0
4985 2 -5.6065335394198591e-02 8.4877135321941310e+01 8.5434964457511924e+01 8.6390238252292164e+01 0 1 0
5857 3 2.4791864520382659e-01 8.7579357800305772e+01 8.7137014113609254e+01 8.5970965658925280e+01 0 0 0
4983 2 9.3404999813495801e-02 8.4648910466128470e+01 8.3496945349252243e+01 8.5053503275001091e+01 0 1 0
4982 1 -4.6270494993951067e-01 8.4405924307199498e+01 8.4797156433865439e+01 8.4257593360915948e+01 0 1 0
1716 3 4.4922346762952058e-02 8.6618886082811358e+01 8.4395565606492852e+01 8.8890823042242332e+01 0 0 0
1713 2 -6.1962644884672811e-02 8.6832724581049575e+01 8.3999967382896159e+01 8.9898808337539904e+01 0 0 0
1714 2 1.2678428742723713e-01 8.7446053185769799e+01 8.2762457092014543e+01 9.0207099673894220e+01 0 0 0
1574 2 -5.9757725480882720e-02 8.2830864959739287e+01 8.4955374780626940e+01 9.0417191156678882e+01 0 1 0
4986 2 1.0098281344829176e-01 8.4484383556511077e+01 8.5938482299096023e+01 8.5094290509870049e+01 0 1 0
4988 3 4.0070023971627254e-02 8.5068237127029903e+01 8.6060138692472904e+01 8.7262138953345641e+01 0 1 0
4994 2 9.6159860462726190e-02 8.4239940512130005e+01 8.7329132958997107e+01 8.4868168508341498e+01 0 1 0
1712 2 -4.1893383790072909e-02 8.6491318024120531e+01 8.4641075164433829e+01 9.1128008558537886e+01 0 0 0
1725 3 2.4615266358226906e-01 8.7881667882999579e+01 8.3005670699216950e+01 8.7382618128446126e+01 0 0 0
5849 3 2.4407874410278482e-01 8.7198404734604068e+01 8.5760475027653484e+01 8.3492632913784021e+01 0 0 0
1573 2 9.1773452393335744e-02 8.2362603853705608e+01 8.4645690472641121e+01 8.9115624715613450e+01 0 1 0
5842 1 -4.6839528463065516e-01 8.8281871397563776e+01 8.5645863148087017e+01 8.3204104221288915e+01 0 0 0
1577 3 3.7089485417701365e-02 8.2624769894457728e+01 8.5925157452101715e+01 9.0919379167818661e+01 0 1 0
1575 2 -8.0030629228675682e-02 8.3577561827819480e+01 8.3879619772112179e+01 9.0977615580397000e+01 0 1 0
4987 3 4.4327508996719500e-02 8.5297944529340029e+01 8.3388975745945828e+01 8.7126318586638732e+01 0 1 0
1572 1 -4.6005872523394892e-01 8.2872120824427085e+01 8.3290294707930627e+01 8.8911070057289564e+01 0 1 0
1731 3 6.6893087213548891e-02 8.7748290178512150e+01 8.2722324072886238e+01 8.5001065844715313e+01 0 0 0
5863 3 3.2225234748740395e-02 8.6503976031950984e+01 8.7892923664574667e+01 8.8476330874759739e+01 0 0 0
5860 2 -5.4813032966787398e-02 8.7370779593156982e+01 8.8348119046025104e+01 8.8978672859245350e+01 0 0 0
1715 3 3.3915067791299360e-02 8.5932247381640167e+01 8.5527358553039747e+01 9.1147970882531951e+01 0 0 0
1710 1 -4.3471730398081465e-01 8.7643840170561262e+01 8.2753802954174034e+01 9.1636897206444075e+01 0 0 0
1576 2 1.1489164480161043e-01 8.3644416677027863e+01 8.2794919417178193e+01 9.0024212089603708e+01 0 1 0
1579 3 2.4636841009966437e-01 8.3198630483261411e+01 8.3077662740846549e+01 8.7845385216190550e+01 0 1 0
5850 1 -4.5994287685667207e-01 8.8590591928512097e+01 8.6851709074847449e+01 8.6351874826473363e+01 0 0 0
6375 3 2.4492529679072020e-01 8.7606187636677774e+01 8.8023773628996551e+01 8.2456012376740702e+01 0 0 0
4993 2 -6.4972851140142091e-02 8.3767918205791716e+01 8.7815261792301541e+01 8.3607594717038339e+01 0 1 0
3563 3 2.2092662401236052e-01 8.4345281328128678e+01 8.7660140724516822e+01 9.1161208153483344e+01 0 0 0
4989 3 2.3192248682104241e-01 8.3619067193783977e+01 8.4866718645089222e+01 8.3475058307278616e+01 0 1 0
1578 3 6.9885033092437737e-02 8.4075059409744085e+01 8.3904074780862928e+01 9.1892449955483215e+01 0 1 0
4996 3 2.4311287384855933e-02 8.3449637620663708e+01 8.7167962184999070e+01 8.2764706651624309e+01 0 1 0
4979 3 6.4766502219920183e-02 8.3547071864348283e+01 8.2668923604808285e+01 8.2577329359701864e+01 0 1 0
4997 3 2.3129818074102981e-01 8.3927763011156415e+01 8.8296407735255016e+01 8.6833727233524698e+01 0 1 0
4990 1 -4.4112221851109601e-01 8.4317999689742663e+01 8.8459808986797952e+01 8.5764080392752689e+01 0 1 0
1711 2 7.4315889400600854e-02 8.6897110433064341e+01 8.3944460178644206e+01 9.2281674234392199e+01 0 0 0
6368 1 -4.2493948538774756e-01 8.8557094193428597e+01 8.8600560678599464e+01 8.2329307481405323e+01 0 0 0
4975 2 1.2550429525859794e-01 8.4430080609368744e+01 8.2193581909723832e+01 8.4656489045187513e+01 0 1 0
3556 1 -4.7051155945692819e-01 8.4004472489853583e+01 8.8377968402858329e+01 9.1953889327269394e+01 0 0 0
3553 3 4.8419157195728847e-02 8.6809587013813896e+01 8.7336389522851334e+01 9.1980836297929457e+01 0 0 0
5859 2 1.0553649193226258e-01 8.8746025218695792e+01 8.8223860766167590e+01 8.8608424649963155e+01 0 0 0
3588 3 5.3937232197917934e-02 8.5175221910077397e+01 8.8671344541320749e+01 8.2168883552368811e+01 1 0 1
3560 2 1.4813452362590787e-01 8.2740126269046897e+01 8.8881680930908772e+01 9.2093542056535753e+01 0 0 0
1732 3 7.0907503442206934e-02 8.8650694664239609e+01 8.2248088435056545e+01 8.2638152310909561e+01 0 0 0
5846 2 1.2426699650400166e-01 8.9441143444672065e+01 8.6013563166263381e+01 8.3998480672562437e+01 0 0 0
5851 2 1.0111492537587295e-01 8.9255289878503064e+01 8.7583625997125210e+01 8.7469808972968295e+01 0 0 0
5854 2 1.0763932479856934e-01 8.9573140843946348e+01 8.6459632779555761e+01 8.5354169219959331e+01 0 0 0
3157 3 7.2483288016023398e-02 8.9157696323943725e+01 8.5108063750366227e+01 9.0258796315108938e+01 0 0 0
5853 2 -7.5588986433313660e-02 9.0832015272061611e+01 8.6868799825389971e+01 8.5886203819131737e+01 0 0 0
5852 2 -6.2125092885529060e-02 9.0644573002550601e+01 8.7484485265269825e+01 8.7146839485995656e+01 0 0 0
3142 3 6.8274743021316198e-02 9.0819419337958664e+01 8.3136341554929828e+01 8.6107530214922832e+01 0 0 0
3139 2 -4.7985822060845368e-02 9.1820140095702740e+01 8.3301758790782699e+01 8.5647878100416790e+01 0 0 0
3138 2 -6.2097478120221400e-02 9.2119513035060777e+01 8.2980793825343682e+01 8.4291006308708546e+01 0 0 0
5856 3 6.3415043976237845e-02 9.1756439541344989e+01 8.6747363473754987e+01 8.5450353541263823e+01 0 0 0
3144 1 -4.4621947353162694e-01 9.1706796862117443e+01 8.4404327650522305e+01 8.8498693671212266e+01 0 0 0
3151 3 2.4589868568652540e-01 9.0804610802959502e+01 8.4781295116393579e+01 8.7942702238713579e+01 0 0 0
3140 2 1.0474913535834508e-01 9.2937883734156173e+01 8.3813950010493187e+01 8.6317266154526379e+01 0 0 0
3148 2 1.1072767244309784e-01 9.2926083623207319e+01 8.4186660413485470e+01 8.7666873382390065e+01 0 0 0
3145 2 1.1676862956018701e-01 9.2081360696040917e+01 8.4986684885368305e+01 8.9783823822975833e+01 0 0 0
3153 2 1.1256041852068799e-01 9.1323818227134723e+01 8.5307157035353143e+01 9.0914454015007337e+01 0 0 0
3154 2 -4.7250233469655206e-02 8.9896189983284543e+01 8.5294805351453647e+01 9.1039335417118394e+01 0 0 0
3147 2 -6.0634228805953205e-02 9.4003278984972269e+01 8.4645310904906211e+01 8.8484973441416798e+01 0 0 0
3136 1 -4.5463702806777312e-01 9.4060238756257192e+01 8.3774818243531101e+01 8.5254175063512861e+01 0 0 0
3137 2 1.1769700160448211e-01 9.3497301456320457e+01 8.3264333201249173e+01 8.4016423255776402e+01 0 0 0
3146 2 -5.7254892122578616e-02 9.3504091579136016e+01 8.5112511624838646e+01 8.9722925021655655e+01 0 0 0
3149 3 4.9802788313791729e-02 9.4113807339947911e+01 8.5549443438153546e+01 9.0482449056083425e+01 0 0 0
5855 3 6.5327455326509812e-02 9.1434648763878585e+01 8.7827920112560221e+01 8.7865819508233940e+01 0 0 0
3150 3 5.4626571330065134e-02 9.4983819975482817e+01 8.4678486174610640e+01 8.8206442002852256e+01 0 0 0
3143 3 2.4996165111460181e-01 9.4932788202479273e+01 8.4422629973079395e+01 8.5275497894798875e+01 0 0 0
2059 2 1.0513774507106260e-01 9.4847952438672024e+01 8.7600003109582332e+01 8.4669939520333955e+01 0 0 0
2060 2 -6.6101323375729035e-02 9.3747908032022593e+01 8.7539122992516909e+01 8.3783130916724105e+01 0 0 0
645 3 5.5709567609268262e-02 9.4368954120976369e+01 8.3053575370951648e+01 9.0504009757206433e+01 0 0 0
642 2 -4.4509410706182508e-02 9.3612098381097354e+01 8.2664672804070861e+01 9.1181568200734574e+01 0 0 0
3141 3 6.9375191063949751e-02 9.1412564129726007e+01 8.2440435490416078e+01 8.3676191177511058e+01 0 0 0
2061 2 -6.5225277508748736e-02 9.4207046217256149e+01 8.7044605419523535e+01 8.2534392496905738e+01 0 0 0
2067 2 1.1390593264889005e-01 9.4775483437458050e+01 8.7896479842242314e+01 8.6064422608344088e+01 0 0 0
3129 2 1.1181523663889628e-01 9.4112036980408362e+01 8.3095869982759325e+01 8.2759247860692881e+01 0 0 0
3152 1 -4.4979434276114910e-01 9.1795138820565626e+01 8.5607738956948026e+01 9.2288772561148178e+01 0 0 0
5845 2 -6.4045991744623554e-02 9.0589876689848580e+01 8.5628164304500416e+01 8.3245597551013034e+01 0 0 0
5848 3 5.4253928743653222e-02 9.1656477671139939e+01 8.5897010573438564e+01 8.3474153553665701e+01 0 0 0
2063 3 3.3278232150865492e-02 9.2727217809449172e+01 8.7661569558574158e+01 8.4018421058268203e+01 0 0 0
2066 1 -4.4746477901352327e-01 9.3755002856501676e+01 8.8655106486885273e+01 8.6697225897468030e+01 0 0 0
5865 3 2.3222879034597091e-01 9.0589117810961568e+01 8.8853013881957040e+01 8.9918620710505181e+01 0 0 0
2069 2 -5.1564829843611389e-02 9.5490695066493799e+01 8.8484114063239758e+01 8.8224489267279409e+01 0 0 0
2062 2 1.1455021021637291e-01 9.5634576079877007e+01 8.6838945603441431e+01 8.2601248598713383e+01 0 0 0
3130 2 -4.5876711843338219e-02 9.5522333222523599e+01 8.3252999856321935e+01 8.2460855573744183e+01 0 0 0
639 3 2.4078730563640827e-01 9.5713187688610120e+01 8.4334733377483104e+01 9.1669876095838532e+01 0 0 0
5844 2 -4.7511079012496224e-02 9.0186747607133796e+01 8.4951231494630164e+01 8.2094054233568471e+01 0 0 0
3798 3 4.8473393832372431e-02 1.0244199904269361e+02 8.6000778222779644e+01 8.2760700716459596e+01 0 0 0
3797 3 5.9259604632654783e-02 1.0186043028489121e+02 8.8021258984468119e+01 8.4289268858138058e+01 0 0 0
629 3 3.6792660339333240e-02 9.8706986296832767e+01 8.8779543577568091e+01 9.2227550519951293e+01 0 0 0
2068 2 -6.3506891119298026e-02 9.5841456365242493e+01 8.7826282485893145e+01 8.7015494763919222e+01 0 0 0
2072 3 2.6142826575175027e-02 9.6142971558371329e+01 8.8514837306159905e+01 8.9085291464782188e+01 0 0 0
3133 3 5.7104760061204698e-02 9.6296700772594207e+01 8.3452955568412548e+01 8.3157623383179725e+01 0 0 0
2058 1 -4.6801910541444836e-01 9.6049306236092292e+01 8.7225138676145690e+01 8.3886471998377999e+01 0 0 0
2071 3 4.4202476972505692e-02 9.6776600787917033e+01 8.7364426614580793e+01 8.6817806666438216e+01 0 0 0
2065 3 2.1804606619053990e-01 9.7029163964619897e+01 8.6809410286858792e+01 8.4330596446602570e+01 0 0 0
3795 2 -4.9679702692014278e-02 1.0149405319741398e+02 8.6001517676163118e+01 8.3359854814316876e+01 0 0 0
3790 3 3.7493770766905216e-02 9.9050497090109999e+01 8.2534694944657502e+01 8.3874078140368553e+01 0 0 0
5669 3 2.3234280420415390e-01 9.7645575114022009e+01 8.3782782519610549e+01 8.8480981917262881e+01 0 0 0
5657 2 -5.4137038330504483e-02 1.0025753984168203e+02 8.6280239352670819e+01 9.1139929720426750e+01 0 0 0
5662 1 -4.9059812028676819e-01 9.7380803851298396e+01 8.3282122658038560e+01 8.9425859795693114e+01 0 0 0
3805 3 5.5468073410582935e-03 9.8457690663090702e+01 8.6171059213543913e+01 8.7467962084522938e+01 0 0 0
3799 3 2.4085243162847692e-01 9.9540011309916324e+01 8.4651718618368463e+01 8.5572897295060741e+01 0 0 0
3793 2 1.1878748666534515e-01 1.0031173895844331e+02 8.6701397052852627e+01 8.5249066887166094e+01 0 0 0
3792 1 -4.8856515098157360e-01 9.9838313642083762e+01 8.5400292912548991e+01 8.4835918987892796e+01 0 0 0
3802 2 -4.1504215323606042e-02 9.9077276753036756e+01 8.7076967620401859e+01 8.7438323725396003e+01 0 0 0
5659 3 5.1892213564767073e-02 9.8751550188539994e+01 8.5890173709242418e+01 8.9541712628730750e+01 0 0 0
5656 2 -5.6608008990024536e-02 9.9210571172115976e+01 8.5584064559716083e+01 9.0490300525759707e+01 0 0 0
5663 2 1.0036817688250460e-01 9.8084373119122915e+01 8.3369764943002394e+01 9.0815748029871770e+01 0 0 0
5655 2 1.2380621258473570e-01 9.8964190449006338e+01 8.4389210421343734e+01 9.1235665745142526e+01 0 0 0
3796 2 1.0531427073398726e-01 1.0064665983512245e+02 8.4893684238071486e+01 8.3694287664605895e+01 0 0 0
3787 2 -5.5816933886288264e-02 9.9849381824892063e+01 8.2580141106051073e+01 8.3168002206934204e+01 0 0 0
3794 2 -5.3569646254664760e-02 1.0123865034637937e+02 8.7090094520534038e+01 8.4213304737938515e+01 0 0 0
2056 3 7.6157567404578089e-02 9.8375815841816859e+01 8.6136794291271826e+01 8.2655949128570242e+01 0 0 0
3788 2 9.5510059717712883e-02 1.0066656676905589e+02 8.3725210014102529e+01 8.2940909058247726e+01 0 0 0
3801 2 9.8078642029324287e-02 9.9942841510176152e+01 8.7494224259227579e+01 8.6346505896917307e+01 0 0 0
630 3 5.1538245224926629e-02 9.7257721682234219e+01 8.6746493946236413e+01 9.1554584291631485e+01 0 0 0
5660 3 6.5655283429475228e-02 1.0070767002686779e+02 8.7145497546675998e+01 9.0722153384446301e+01 0 0 0
3803 2 -5.8713304438634310e-02 9.9009662612954429e+01 8.8074516038193764e+01 8.8447399063820669e+01 0 0 0
3806 3 3.2518002523240476e-02 9.8353829655060508e+01 8.8038565538405550e+01 8.9330730320830028e+01 0 0 0
3800 1 -4.3546480955702699e-01 1.0051759082340172e+02 8.8724879839338968e+01 8.6860906222351758e+01 0 0 0
5664 2 -5.9639671858012937e-02 9.7517686805101917e+01 8.2370743215214759e+01 9.1610936581770787e+01 0 0 0
5666 2 1.3172549968482411e-01 9.6430577451725725e+01 8.2341516909657628e+01 8.9610433109728007e+01 0 0 0
6395 2 -6.9618924097477455e-02 8.5280473835063646e+01 9.4076983935165472e+01 9.2232629779298620e+01 0 0 0
6381 3 6.8421770291916220e-02 8.6627179404484295e+01 8.9103436071848961e+01 8.4418842926660162e+01 0 0 0
4992 2 -6.5046665394198566e-02 8.3589931021060920e+01 8.9219626346048969e+01 8.3731037775519198e+01 0 1 0
6399 3 2.1999107992552108e-01 8.8034370084486468e+01 9.5569434988132883e+01 9.1611109131283342e+01 0 0 0
2413 3 2.7810385912549934e-01 8.4921981149552622e+01 9.5047460952333864e+01 8.2174535178470478e+01 1 0 1
5012 3 3.1050830100388425e-02 8.2286076575609144e+01 9.4328992773374495e+01 8.3082508795661880e+01 0 1 0
5861 2 -6.9473262083563650e-02 8.7200424726372191e+01 8.9198676152356285e+01 9.0097155699659581e+01 0 0 0
5864 3 5.6242886038103151e-02 8.6289804699390587e+01 8.9572096116218972e+01 9.0557092026173450e+01 0 0 0
5862 2 1.2827725552791661e-01 8.8496300137002962e+01 8.9588557747019053e+01 9.0537002890783427e+01 0 0 0
6378 2 -6.7220797078469827e-02 8.7309259930482085e+01 8.9714526216220094e+01 8.4932099064464907e+01 0 0 0
4991 2 1.0349870324684030e-01 8.3954047657283240e+01 8.9709731639951741e+01 8.5000355747992558e+01 0 1 0
3575 2 1.2507446860044480e-01 8.7220679814530101e+01 9.2812903581768211e+01 8.2659435215191124e+01 1 0 1
6382 3 5.9197905890869124e-02 8.6154832602760379e+01 9.0220293414524889e+01 8.6798186605566826e+01 0 0 0
6397 3 2.7934156310178232e-02 8.5254707010883379e+01 9.2607754952581203e+01 9.0588088029450276e+01 0 0 0
5004 3 3.6163824013124402e-02 8.4413400436880949e+01 9.3621201581433851e+01 8.7494135476079393e+01 0 1 0
5002 2 1.1862215058589232e-01 8.3722853956811846e+01 9.3463348819582251e+01 8.5347273880625266e+01 0 1 0
5001 2 -6.0168476119495100e-02 8.4181769441424677e+01 9.3010130405891303e+01 8.6629050736602551e+01 0 1 0
5000 2 -4.4798793050186123e-02 8.4267517835224808e+01 9.1593837829243213e+01 8.6645561503960110e+01 0 1 0
3570 3 9.2602767377699069e-02 8.6690391386372283e+01 9.2672332188584747e+01 8.5436448196741054e+01 1 0 1
6379 2 -4.5390262132384195e-02 8.7147563624416307e+01 9.0267755443666843e+01 8.6242154051112607e+01 0 0 0
3581 3 2.4718879751196546e-01 8.5867546681039116e+01 9.1158760753595246e+01 8.3413989946887710e+01 1 0 1
3567 2 -4.9041950854432532e-02 8.7237210986807270e+01 9.3493259368473247e+01 8.5086684172238250e+01 1 0 1
4999 2 1.0189112802199091e-01 8.3959868391831264e+01 9.1067049288705576e+01 8.5364677248443599e+01 0 1 0
5003 3 3.3836538857924113e-02 8.4475250344480074e+01 9.0961807380353676e+01 8.7511076706807970e+01 0 1 0
4998 1 -4.3842847615683483e-01 8.3612569817333224e+01 9.2271010115915885e+01 8.4549872832741727e+01 0 1 0
6384 1 -4.6691555681877567e-01 8.7403235872086626e+01 9.1995286900904375e+01 8.8901885074982999e+01 0 0 0
6391 3 2.3782822801182207e-01 8.6400326729060566e+01 9.1530553848281514e+01 8.9019548844260157e+01 0 0 0
6385 2 1.2174467073825511e-01 8.7889377551882319e+01 9.2999295314553848e+01 8.9865723233031659e+01 0 0 0
6393 2 1.0831626189537635e-01 8.7165020284791595e+01 9.3605377675862030e+01 9.0924471687521930e+01 0 0 0
6394 2 -6.7023495431197275e-02 8.5765897525566714e+01 9.3380910688403887e+01 9.1101336452821712e+01 0 0 0
3566 2 1.0281601635946480e-01 8.7566919885956054e+01 9.3593351321542229e+01 8.3753728702308649e+01 1 0 1
3568 2 -8.0817656483474443e-02 8.7719801747543826e+01 9.4573817925043869e+01 8.5946965062136655e+01 1 0 1
3574 1 -4.3191353675843186e-01 8.6612951299936270e+01 9.1477705985534826e+01 8.2600226103554746e+01 1 0 1
6380 2 1.0114616980055788e-01 8.8264725644540675e+01 9.0940480089432882e+01 8.6743369552959479e+01 0 0 0
6388 2 1.4179111528606941e-01 8.8441504682377186e+01 9.1643452111318936e+01 8.7979592736672089e+01 0 0 0
5010 2 1.1699908182274149e-01 8.3246930117171871e+01 9.4776563018205707e+01 8.5057344503079932e+01 0 1 0
6392 1 -4.3191463029445265e-01 8.7532325690434675e+01 9.4621939239195100e+01 9.1934986598528326e+01 0 0 0
3571 3 6.5647675818615969e-02 8.7552874333902494e+01 9.4713684810117812e+01 8.6992004270007115e+01 1 0 1
4995 3 2.3927568155267562e-02 8.3154034798039220e+01 8.9832546950290592e+01 8.2927910623072407e+01 0 1 0
5005 3 2.0630884490135626e-01 8.3097104185122220e+01 9.2124222953456595e+01 8.3521750137845615e+01 0 1 0
5009 2 -4.5657623040789443e-02 8.2509587491880907e+01 9.5072342436359051e+01 8.3881886900224643e+01 0 1 0
3569 2 1.3423745224618788e-01 8.8274234784851501e+01 9.5464655180417196e+01 8.5067578317734856e+01 1 0 1
6377 2 1.3349779426080269e-01 8.8648838840479314e+01 8.9972741660995311e+01 8.4554567009023117e+01 0 0 0
3565 1 -4.7524263382437887e-01 8.8325566471185667e+01 9.5012261189159489e+01 8.3759965047285320e+01 1 0 1
3573 3 2.5706955528997921e-01 8.8888881645816781e+01 9.5475455513573863e+01 8.2952790971685829e+01 1 0 1
5870 2 1.1046979020096694e-01 8.8768622120838742e+01 9.0478393592857358e+01 9.1604687231435236e+01 0 0 0
5858 1 -4.3969623228181387e-01 8.9471552307098165e+01 8.8988132939559193e+01 8.9620053672378191e+01 0 0 0
2070 2 1.0597876013786761e-01 9.4218651123060397e+01 8.9102427968569984e+01 8.8060891658863980e+01 0 0 0
6386 2 -5.7426094250395986e-02 8.9181375585173427e+01 9.3357535292604709e+01 8.9385989034531946e+01 0 0 0
3708 3 5.5470742496091130e-02 9.0801111940978259e+01 9.3550921807475945e+01 8.2152280290206846e+01 0 0 1
2082 1 -4.9468559992042260e-01 9.2283369512884988e+01 9.3513903830628777e+01 9.2198145271286151e+01 0 0 0
2089 3 2.6567551590023786e-01 9.1629902160950110e+01 9.3970179913185845e+01 9.1461614528031973e+01 0 0 0
2083 2 9.8499221998330139e-02 9.3210954832881328e+01 9.2438310951052202e+01 9.1772220040276920e+01 0 0 0
2073 3 2.1804063651259123e-01 9.2875007055540252e+01 8.9063604760816304e+01 8.6105022303293069e+01 0 0 0
3709 3 2.5232953867471597e-01 9.3813941701665101e+01 9.0337694967036839e+01 8.2743249036070921e+01 0 0 1
3702 1 -4.7391137546242007e-01 9.3105357881222531e+01 9.1079419868076684e+01 8.2293582697101940e+01 0 0 1
3720 2 -4.0720274836329715e-02 9.0988625425530984e+01 9.5388011795298766e+01 8.7565738561705885e+01 0 0 1
6369 2 1.2632359691042314e-01 8.9214424377934151e+01 8.9378452210718422e+01 8.3376591334964090e+01 0 0 0
3723 3 3.9623371102512239e-02 9.0416668616945913e+01 9.5599601272899662e+01 8.6705037843534953e+01 0 0 1
6387 2 -6.5737878362936847e-02 8.9517085606654163e+01 9.2521602895321848e+01 8.8275617848360483e+01 0 0 0
6376 1 -4.3129273007358609e-01 8.9230379805990083e+01 9.0713547143061760e+01 8.5670516214595906e+01 0 0 0
6373 3 6.7796273185639758e-02 9.1295434497045619e+01 8.9778059731509572e+01 8.3704301360360660e+01 0 0 0
2081 3 2.1065125078614225e-01 9.5215734206830319e+01 9.0479979983501750e+01 9.0616475012553380e+01 0 0 0
2078 2 8.7753560488149002e-02 9.3620832342311388e+01 8.9968129979887664e+01 8.8953394686809546e+01 0 0 0
2075 2 1.0713005965584499e-01 9.3142145676779791e+01 9.1520062792956637e+01 9.0707569915250858e+01 0 0 0
6389 3 5.4541931646230800e-02 8.9805299087612866e+01 9.4133094226894045e+01 8.9825701468815012e+01 0 0 0
6383 3 2.3579031630574354e-01 9.0279442409260696e+01 9.0591485735189863e+01 8.6070379951771599e+01 0 0 0
6390 3 7.8127124388715247e-02 9.0467635750106808e+01 9.2549152497448588e+01 8.7761496195488746e+01 0 0 0
2080 3 3.8199452906866466e-02 9.1679449081649139e+01 9.0436705381294985e+01 8.7909410236881570e+01 0 0 0
3710 1 -4.7086907415721496e-01 9.1699899279403795e+01 9.3434170557032459e+01 8.5068945154172354e+01 0 0 1
2079 3 8.6714335856274666e-02 9.1120876683223045e+01 9.2043285231942590e+01 8.9891244831209065e+01 0 0 0
3711 2 9.5964581826496878e-02 9.2226935096078037e+01 9.3519898178595668e+01 8.6558143090643242e+01 0 0 1
3714 2 1.2075095749116511e-01 9.2519849862508678e+01 9.2517954580746007e+01 8.4382650187344623e+01 0 0 1
3716 3 6.8773802503937692e-02 9.4114064611665754e+01 9.1141663278126231e+01 8.5045476161814179e+01 0 0 1
3713 2 -6.2596779115294210e-02 9.3482269299845953e+01 9.1974282081205459e+01 8.5317599805293895e+01 0 0 1
3715 3 9.3746653272579722e-02 9.3830748716222189e+01 9.2273420732338835e+01 8.7469850856055132e+01 0 0 1
3712 2 -6.4757426020891795e-02 9.3249898700515288e+01 9.2534883187410458e+01 8.6569185305062447e+01 0 0 1
2076 2 -8.5141330940852078e-02 9.2048757181095425e+01 9.1514285525178906e+01 8.9767468437323970e+01 0 0 0
2077 2 -4.7844893818267217e-02 9.2342206097214060e+01 9.0588471503585168e+01 8.8775210700447403e+01 0 0 0
3725 3 2.5181353387685368e-01 9.3175293432373721e+01 9.4019800233195411e+01 8.9789631197907525e+01 0 0 1
2074 1 -4.3650376129072871e-01 9.4163246181543144e+01 9.0571061488888859e+01 9.0264237402656008e+01 0 0 0
3706 2 1.1146549712668320e-01 9.2383245106140876e+01 9.2129674799338304e+01 8.3007862938347699e+01 0 0 1
3717 3 2.6298178372056868e-01 9.0951013626554143e+01 9.4094069432746082e+01 8.4597028152865548e+01 0 0 1
3719 2 5.3488205163163431e-02 9.1956404882245664e+01 9.4386668918039859e+01 8.7524276876019073e+01 0 0 1
3718 1 -4.5151126730494523e-01 9.2518579353146919e+01 9.4703894273814939e+01 8.9152970444480246e+01 0 0 1
5872 3 7.9983485308816396e-02 9.0873457736014871e+01 9.0348436302580666e+01 9.1723994942833428e+01 0 0 0
5869 2 -4.9272583489211284e-02 9.0022023326235228e+01 9.0734991459312837e+01 9.2162262696261919e+01 0 0 0
6370 2 -5.6927870880458933e-02 9.0594984102411701e+01 8.9343957867926832e+01 8.3071298323652130e+01 0 0 0
319 2 -1.0223663183490228e-01 9.5379999312150090e+01 9.5073747999170919e+01 8.9262093327082070e+01 0 0 1
321 3 5.1508112022327392e-02 9.5198839153445164e+01 9.5037746819139798e+01 8.7064406541086271e+01 0 0 1
324 3 2.2676767945146351e-02 9.5765712928708467e+01 9.4252805963876312e+01 9.1244289274619518e+01 0 0 1
320 2 1.1577445308939556e-01 9.5788852717272519e+01 9.4122483603774668e+01 9.0196096981753129e+01 0 0 1
318 2 -3.6020438959683078e-02 9.5544294785416113e+01 9.4533591922387018e+01 8.7924255887876058e+01 0 0 1
3722 2 1.2780130852412322e-01 9.1810760144760408e+01 9.5771469581344064e+01 8.9603806364651390e+01 0 0 1
3823 3 2.0242429625774888e-01 9.9388894221423854e+01 9.5003833785910814e+01 9.1082463815379711e+01 0 0 0
3815 3 1.9086513432420665e-01 9.8351332866646615e+01 9.0045628945064934e+01 9.0442288463403841e+01 0 0 0
323 3 2.2746945497139898e-01 9.6886339009128946e+01 9.2191056584902498e+01 9.0159209513198093e+01 0 0 1
4647 3 5.2496811621672620e-02 1.0000390141811462e+02 9.4993288354840345e+01 8.2768535390488566e+01 0 0 1
3809 2 9.5244465929236161e-02 9.9522782147095825e+01 9.2012086617756765e+01 9.0589582619096973e+01 0 0 0
3804 2 1.1791384682434311e-01 9.9909772936579998e+01 8.9121917912818503e+01 8.8076095596084073e+01 0 0 0
4656 3 3.2698641555781505e-02 1.0027462560308814e+02 8.8937500677002291e+01 8.3261347222443405e+01 0 0 1
4634 1 -4.6842316672585305e-01 9.9462672841689113e+01 9.5291416365006981e+01 8.5652078249987895e+01 0 0 1
4649 3 2.4926283833972487e-01 9.9821475113335339e+01 9.0950090879757667e+01 8.4425772954240401e+01 0 0 1
4642 1 -4.6396690096648252e-01 1.0001619945183863e+02 9.1807630983640379e+01 8.3783091515723257e+01 0 0 1
4637 2 -7.5212855755307631e-02 9.8968874503261688e+01 9.4136194573965312e+01 8.7638684539373713e+01 0 0 1
316 1 -4.3091817753112477e-01 9.6417027519498362e+01 9.3084116756124700e+01 8.9632590208208228e+01 0 0 1
304 2 1.1132633216469590e-01 9.6744303110004182e+01 9.1575617862924972e+01 8.3244408855001581e+01 0 0 1
313 3 5.9764670420428351e-02 9.7160547013498075e+01 9.0595785547182288e+01 8.7883253597603442e+01 0 0 1
4640 3 9.3481801361162964e-02 9.8557483564423592e+01 9.3928826154794933e+01 8.8605572446736204e+01 0 0 1
300 1 -4.3534385453039531e-01 9.7133564276748558e+01 9.0430065923851032e+01 8.2434745300185639e+01 0 0 1
310 2 -4.6695753682351723e-02 9.7081647209787803e+01 9.1203793602813974e+01 8.6939108219396417e+01 0 0 1
3817 2 9.4062001358654709e-02 9.8966914359320100e+01 9.2772785350092590e+01 9.1636259895950786e+01 0 0 0
3814 3 2.4471982043426016e-02 1.0142483539780146e+02 9.1630357599000234e+01 8.7805069959886566e+01 0 0 0
842 3 5.4837258821678364e-02 1.0218830531333764e+02 9.5216929812518117e+01 8.7582033199638914e+01 -1 1 0
315 3 2.4686244013265121e-01 9.6050706529582200e+01 9.3821751006879452e+01 8.5171791979600968e+01 0 0 1
4643 2 1.0938585211359907e-01 9.9865279068315047e+01 9.3274991607748078e+01 8.4131325910682591e+01 0 0 1
311 2 -5.9845546799228488e-02 9.7216785521088781e+01 9.0691632372365078e+01 8.5643023227638963e+01 0 0 1
4639 3 7.9538647716722033e-02 9.9131602289922938e+01 9.2170273832034852e+01 8.6783552643054762e+01 0 0 1
3811 2 -4.3913493406684496e-02 1.0073083013909512e+02 9.1480094284018577e+01 8.8688488719129609e+01 0 0 0
4644 2 -5.6076138162708788e-02 1.0010290070841759e+02 9.3962115867558069e+01 8.2903096596236708e+01 0 0 1
303 2 -4.1883904186560898e-02 9.6664955505739073e+01 9.2606541439915574e+01 8.2278024242050080e+01 0 0 1
317 2 6.2191493149402713e-02 9.6217912747947139e+01 9.3338767364462157e+01 8.7937982861988061e+01 0 0 1
3812 2 8.6459125275988619e-02 9.9963307634138744e+01 9.0325026571230609e+01 8.8867336780864562e+01 0 0 0
3808 1 -4.3991870106315212e-01 9.9272809214051392e+01 9.0653783332255472e+01 9.0149021026196550e+01 0 0 0
307 3 2.3765776758296223e-01 9.7469443448411056e+01 8.9423294922243883e+01 8.2894996254271646e+01 0 0 1
312 2 1.3886387068028935e-01 9.6703085946176728e+01 9.1669826563587023e+01 8.4676742703964536e+01 0 0 1
4635 2 1.1265794241246081e-01 9.9681926304510071e+01 9.3867534614867211e+01 8.5366624596094979e+01 0 0 1
306 3 7.2780086187285542e-02 9.6300530248287231e+01 9.3614922454181780e+01 8.2525380059249045e+01 0 0 1
3810 2 -6.3457059282764516e-02 1.0052911776953019e+02 9.2484889134068538e+01 8.9672159296926296e+01 0 0 0
4638 2 1.0782658543038108e-01 9.9002390316828865e+01 9.5430963504648190e+01 8.7071341909264618e+01 0 0 1
4653 2 -4.6391917490305037e-02 1.0069799995906968e+02 8.9174023201864912e+01 8.2262425188450365e+01 0 0 1
3813 3 4.4414633078554373e-02 1.0092299925348945e+02 9.3464476521643363e+01 8.9626034205940599e+01 0 0 0
314 3 5.7588418679276270e-02 9.7584261251617079e+01 8.9712063172593616e+01 8.5413407866920622e+01 0 0 1
4636 2 -5.1612186786260894e-02 9.9352369851021678e+01 9.3220536102857267e+01 8.6624771444857899e+01 0 0 1
309 2 1.1803095644555463e-01 9.6540159127015599e+01 9.2563746163439902e+01 8.6918973949830402e+01 0 0 1
308 1 -4.7028822744854198e-01 9.6393034803855642e+01 9.2802676845413359e+01 8.5430920527581321e+01 0 0 1
3807 3 1.9782092985690511e-01 1.0117002270102547e+02 8.9465340690815879e+01 8.6227657165705324e+01 0 0 0
4646 2 1.2401548193598480e-01 1.0032435949822545e+02 9.1638894432697668e+01 8.2383000080040290e+01 0 0 1
3816 1 -4.3105131788779999e-01 9.9128399539562352e+01 9.4179696519206729e+01 9.1908684828106047e+01 0 0 0
1704 2 -4.6993048052060976e-02 8.6967896620933942e+01 8.3371127041185858e+01 9.4732651001848467e+01 0 0 0
1702 1 -4.7667028469409639e-01 8.5887741819619663e+01 8.5331498331360777e+01 9.4214307288756487e+01 0 0 0
1703 2 1.1076777935774137e-01 8.6627995821424690e+01 8.4193954712386159e+01 9.3605895480210904e+01 0 0 0
1709 3 2.6702016733872624e-01 8.5177905009509658e+01 8.6052465995744100e+01 9.3783069565684372e+01 0 0 0
1694 1 -4.5043670398216618e-01 8.5371480771782103e+01 8.5962478824742135e+01 9.8068107978989801e+01 0 0 0
1698 2 9.0132185570289666e-02 8.5453592290975124e+01 8.6176770501733543e+01 9.6625004490199899e+01 0 0 0
1701 3 2.1972395498652697e-01 8.6021596666539352e+01 8.5216346045606343e+01 9.8686153477322193e+01 0 0 0
1708 3 3.0014416956395652e-02 8.6774922509503270e+01 8.3639368681022447e+01 9.6984046921196153e+01 0 0 0
1695 2 1.0586756537575615e-01 8.4593701237425563e+01 8.7042518266089957e+01 9.8667617227905353e+01 0 0 0
1691 3 4.0991071724463181e-02 8.5481602535719745e+01 8.5563142625447384e+01 1.0105069495844062e+02 0 0 0
1687 2 9.6098963945818905e-02 8.4411204857821900e+01 8.7260278843571157e+01 1.0005986246216489e+02 0 0 0
1688 2 -6.0274990425319946e-02 8.4930856061964604e+01 8.6511662315695901e+01 1.0115517362636054e+02 0 0 0
1697 2 -5.7569232044013499e-02 8.4809545565765461e+01 8.7420330946412790e+01 9.6398825643571982e+01 0 0 0
3173 3 8.9940034718727441e-02 8.7473350686097731e+01 8.7046801269755377e+01 9.7301837791962768e+01 0 0 0
1696 2 -5.6762602629433216e-02 8.4299603067111931e+01 8.7958210676190177e+01 9.7613476061338460e+01 0 0 0
3174 3 6.3684657549061260e-02 8.6779393161243533e+01 8.7483315554082239e+01 9.9808314555723555e+01 0 0 0